Title
42775
    1SAPS     N    1   2.489   3.971   7.538  0.5103 -0.2383 -0.4678
    1SAPS   HN1    2   2.572   3.909   7.550 -0.6213 -1.3506  2.3198
    1SAPS   HN2    3   2.402   3.916   7.526  1.0596 -0.8420 -2.0238
    1SAPS   HN3    4   2.504   4.024   7.449  1.5968  1.9642  0.9442
    1SAPS   C12    5   2.479   4.059   7.661 -0.3598 -0.2738  0.2481
    1SAPS  H12A    6   2.424   4.146   7.630  3.5669  3.0728  1.6978
    1SAPS   C13    7   2.413   3.988   7.781  0.4918 -0.6990  0.4968
    1SAPS  O13A    8   2.331   3.894   7.760 -0.3924  0.0485  0.3117
    1SAPS  O13B    9   2.415   4.044   7.892  0.0874  0.3664  0.3993
    1SAPS   C11   10   2.629   4.107   7.696  0.6737 -0.5913 -0.1342
    1SAPS  H11A   11   2.685   4.012   7.705  2.1217  0.2910  0.5563
    1SAPS  H11B   12   2.636   4.151   7.798  1.7923 -2.1571  0.5031
    1SAPS     P   13   2.724   4.338   7.630  0.0421 -0.4216  0.6419
    1SAPS   O13   14   2.621   4.406   7.709  0.8758  0.2705  0.3434
    1SAPS   O14   15   2.865   4.329   7.682 -0.1532  0.3432 -0.2226
    1SAPS   O12   16   2.679   4.187   7.597 -0.8126  0.3717  0.1286
    1SAPS   O11   17   2.721   4.412   7.485 -0.0474  0.1728  0.0018
    1SAPS    C1   18   2.650   4.359   7.374  0.1381 -0.2653  0.1328
    1SAPS    HA   19   2.679   4.411   7.280  2.8530  0.8873  1.4979
    1SAPS    HB   20   2.685   4.255   7.360  2.6369  0.4771  0.3939
    1SAPS    C2   21   2.503   4.391   7.389  0.0050  0.5482  0.0131
    1SAPS    HS   22   2.473   4.328   7.475  1.4124  0.6334  0.5967
    1SAPS   O21   23   2.429   4.361   7.265 -0.2593  0.1704  0.1251
    1SAPS   C21   24   2.423   4.236   7.225  0.4481 -0.1691 -0.4015
    1SAPS   O22   25   2.467   4.144   7.297  0.9791 -0.2933  0.4699
    1SAPS   C22   26   2.346   4.235   7.097 -0.1005 -0.0326  0.3074
    1SAPS   H2R   27   2.335   4.130   7.062  0.1092  0.7220 -2.2326
    1SAPS   H2S   28   2.248   4.284   7.113  0.0584  0.1717  0.6662
    1SAPS    C3   29   2.471   4.543   7.428 -0.2204 -0.0818  0.0343
    1SAPS    HX   30   2.526   4.564   7.522  0.5963 -2.7908  0.2537
    1SAPS    HY   31   2.361   4.551   7.439 -0.3833 -0.8368 -0.8357
    1SAPS   O31   32   2.525   4.637   7.336 -0.4058  0.0784  0.3545
    1SAPS   C31   33   2.453   4.670   7.236  0.1873  1.0668 -0.5740
    1SAPS   O32   34   2.337   4.635   7.215 -0.0089 -0.1749 -0.5671
    1SAPS   C32   35   2.522   4.776   7.153  0.0924  0.6537  0.0124
    1SAPS   H2X   36   2.613   4.806   7.209 -0.3203 -1.2605  1.8314
    1SAPS   H2Y   37   2.459   4.868   7.159  1.2755  1.4062  1.5031
    1SAPS   C23   38   2.432   4.305   6.989 -0.0786 -0.4262  0.6287
    1SAPS   H3R   39   2.456   4.409   7.020  2.8392 -1.0228  0.6497
    1SAPS   H3S   40   2.374   4.313   6.895  2.9693 -0.8558 -1.4400
    1SAPS   C24   41   2.561   4.223   6.941 -1.1245  0.0293 -0.0107
    1SAPS   H4R   42   2.618   4.201   7.033 -0.8355 -2.1369 -0.6609
    1SAPS   H4S   43   2.621   4.283   6.869 -0.8322  0.2330  0.3998
    1SAPS   C25   44   2.527   4.089   6.877  0.9493  0.2432  0.1687
    1SAPS   H5R   45   2.465   4.021   6.937  1.7105 -2.4865 -1.9150
    1SAPS   C26   46   2.573   4.027   6.762 -0.0890 -0.0089 -0.4109
    1SAPS   H6R   47   2.537   3.926   6.738 -1.9681  0.2907  0.9075
    1SAPS   C27   48   2.660   4.092   6.655 -0.4932  0.3150  0.7036
    1SAPS   H7R   49   2.749   4.028   6.635 -0.5317  0.4529  0.0600
    1SAPS   H7S   50   2.707   4.188   6.685  1.8521  0.2383 -2.1702
    1SAPS   C28   51   2.582   4.133   6.531 -0.3062  0.0338  0.7574
    1SAPS   H8R   52   2.526   4.227   6.539 -0.8709 -0.0093 -1.9056
    1SAPS   C29   53   2.596   4.065   6.408  0.1238 -0.0060 -0.1643
    1SAPS   H9R   54   2.531   4.089   6.323  0.3664 -0.2153 -0.4095
    1SAPS  C210   55   2.681   3.945   6.380 -0.8448 -0.0181 -0.6388
    1SAPS  H10R   56   2.609   3.861   6.382 -1.9899  0.9507  0.0775
    1SAPS  H10S   57   2.752   3.924   6.463  1.0347 -1.0759 -2.4032
    1SAPS  C211   58   2.762   3.943   6.248  0.6324 -0.2602 -0.0733
    1SAPS  H11R   59   2.871   3.953   6.262  0.4424  1.0781  0.6521
    1SAPS  C212   60   2.707   3.931   6.118 -0.0841 -0.4775  0.5939
    1SAPS  H12R   61   2.779   3.927   6.036 -0.1823  2.5981  0.2351
    1SAPS  C213   62   2.565   3.914   6.086  0.6041 -0.2760  0.0882
    1SAPS  H13R   63   2.523   4.015   6.066 -0.8050 -0.6285  1.1340
    1SAPS  H13S   64   2.498   3.886   6.171  2.0996  0.7296  1.6384
    1SAPS  C214   65   2.540   3.826   5.959  1.2917 -1.1926 -0.2136
    1SAPS  H14R   66   2.630   3.784   5.911  0.7807 -0.6301 -1.7183
    1SAPS  C215   67   2.425   3.799   5.899 -0.0010 -0.0665 -0.0987
    1SAPS  H15R   68   2.430   3.746   5.803  0.9399  1.1327 -0.7298
    1SAPS  C216   69   2.288   3.828   5.947  0.0248 -0.0427 -0.6256
    1SAPS  H16R   70   2.226   3.887   5.876  0.0969  0.6231 -0.1448
    1SAPS  H16S   71   2.287   3.888   6.041 -1.1328  0.2926 -0.8340
    1SAPS  C217   72   2.224   3.696   5.992  0.6234 -0.1307 -0.1914
    1SAPS  H17R   73   2.284   3.675   6.083  0.0535  1.6281  0.6416
    1SAPS  H17S   74   2.225   3.609   5.923 -2.0321 -0.6178  0.2823
    1SAPS  C218   75   2.078   3.708   6.032 -0.1276  0.2024 -0.2251
    1SAPS  H18R   76   2.020   3.615   6.018 -1.0816  0.7367  0.0786
    1SAPS  H18S   77   2.045   3.785   5.959  2.2299  1.3457 -0.1778
    1SAPS  C219   78   2.039   3.762   6.174  0.0050  0.5756  0.7225
    1SAPS  H19R   79   2.074   3.868   6.177 -1.0070  0.9138  3.1209
    1SAPS  H19S   80   2.102   3.717   6.254 -0.4781 -1.9455 -0.2173
    1SAPS  C220   81   1.892   3.742   6.224  0.0516 -0.3658  0.4284
    1SAPS  H20R   82   1.813   3.787   6.160  0.3011  0.1020  0.4380
    1SAPS  H20S   83   1.880   3.783   6.327 -0.1012  1.2053 -0.1800
    1SAPS  H20T   84   1.877   3.634   6.241  2.0748 -0.5659  1.2167
    1SAPS   C33   85   2.558   4.739   7.005  0.3738 -0.1214  0.3888
    1SAPS   H3X   86   2.610   4.826   6.958  0.1279 -0.7409 -1.0964
    1SAPS   H3Y   87   2.468   4.726   6.941  0.9534  1.4830 -0.8469
    1SAPS   C34   88   2.652   4.619   6.994  0.1299 -0.3460 -0.2744
    1SAPS   H4X   89   2.609   4.543   7.063 -0.1276 -0.0848 -0.1438
    1SAPS   H4Y   90   2.756   4.641   7.023 -0.0161  1.3715 -0.9393
    1SAPS   C35   91   2.672   4.557   6.849 -0.2574 -0.3201  0.0849
    1SAPS   H5X   92   2.569   4.528   6.817 -0.3970 -0.4170  0.6125
    1SAPS   H5Y   93   2.738   4.472   6.874  1.7442  1.3256  0.7068
    1SAPS   C36   94   2.718   4.664   6.752  0.7021 -0.5819 -0.8454
    1SAPS   H6X   95   2.825   4.683   6.777  0.8977  0.9061 -2.6360
    1SAPS   H6Y   96   2.643   4.744   6.770 -0.6213 -1.4912 -2.0770
    1SAPS   C37   97   2.697   4.624   6.600  0.5418 -0.2828 -0.6992
    1SAPS   H7X   98   2.747   4.704   6.542  0.7539  1.4632  1.7358
    1SAPS   H7Y   99   2.587   4.630   6.590  0.4307 -0.0769  0.4729
    1SAPS   C38  100   2.757   4.491   6.562  0.0781 -1.0633 -0.1566
    1SAPS   H8X  101   2.724   4.412   6.633 -0.1106  2.6390  4.3047
    1SAPS   H8Y  102   2.865   4.483   6.584 -0.2063 -3.4817  0.6943
    1SAPS   C39  103   2.736   4.457   6.413  0.1018  0.1059  0.4997
    1SAPS   H9X  104   2.626   4.457   6.403  0.1296  0.3409  0.1636
    1SAPS   H9Y  105   2.775   4.354   6.397 -0.1953 -0.0163  0.5545
    1SAPS  C310  106   2.791   4.561   6.309 -0.0810  0.5805  0.0147
    1SAPS  H10X  107   2.900   4.564   6.328 -0.4011  1.2291  2.0149
    1SAPS  H10Y  108   2.759   4.666   6.328  0.5167  0.5463  1.3073
    1SAPS  C311  109   2.752   4.530   6.163  0.5182 -0.4605  0.4359
    1SAPS  H11X  110   2.795   4.595   6.084  2.1025 -2.7797 -0.7262
    1SAPS  H11Y  111   2.646   4.553   6.139  1.0987  1.3995 -0.5344
    1SAPS  C312  112   2.781   4.384   6.113 -0.1336 -0.3719 -0.0274
    1SAPS  H12X  113   2.728   4.308   6.176  2.2605 -0.8983  1.5182
    1SAPS  H12Y  114   2.885   4.347   6.128 -0.9045 -2.3789  0.8937
    1SAPS  C313  115   2.759   4.368   5.959  0.3820 -0.3801 -0.4490
    1SAPS  H13X  116   2.849   4.413   5.912  0.9907 -1.8203 -0.7404
    1SAPS  H13Y  117   2.670   4.429   5.931  1.2336  2.0624  1.7721
    1SAPS  C314  118   2.755   4.218   5.934 -0.2737 -0.1056  0.0892
    1SAPS  H14X  119   2.654   4.181   5.961 -0.0805 -0.4246  0.3911
    1SAPS  H14Y  120   2.833   4.172   5.998 -0.2803  0.7297  0.7146
    1SAPS  C315  121   2.780   4.175   5.795 -0.2317  0.0794  0.5141
    1SAPS  H15X  122   2.806   4.067   5.787 -0.5085  0.1330 -2.8215
    1SAPS  H15Y  123   2.871   4.232   5.768 -0.5859  0.9265  1.0665
    1SAPS  C316  124   2.665   4.225   5.700 -0.6190  0.0246  0.7467
    1SAPS  H16X  125   2.711   4.247   5.602  1.1203 -0.6969  1.3710
    1SAPS  H16Y  126   2.618   4.318   5.739  0.6037 -0.4056  3.4565
    1SAPS  C317  127   2.554   4.129   5.694  0.4803 -0.0192  0.4458
    1SAPS  H17X  128   2.548   4.084   5.795  1.1163  1.4222  1.1483
    1SAPS  H17Y  129   2.575   4.046   5.622 -2.9013 -1.8679  1.3283
    1SAPS  C318  130   2.413   4.186   5.656  0.3259 -0.2007  0.2028
    1SAPS  H18X  131   2.382   4.256   5.736  2.2206  2.9091 -1.5905
    1SAPS  H18Y  132   2.342   4.103   5.636 -0.9652  0.5587  1.4658
    1SAPS  H18Z  133   2.429   4.250   5.567  1.1321  0.5322  0.8552
    2SAPS     N  134   0.973   0.564   7.862  0.2295 -0.4416  0.0882
    2SAPS   HN1  135   0.989   0.463   7.878  2.4828  0.0825  1.6444
    2SAPS   HN2  136   0.873   0.593   7.858  0.5422  0.6078 -2.9136
    2SAPS   HN3  137   0.990   0.582   7.760 -0.7303  0.5860  0.0806
    2SAPS   C12  138   1.047   0.653   7.963 -0.2498 -0.3371 -0.3360
    2SAPS  H12A  139   0.980   0.652   8.048  0.1554 -1.7244 -0.0073
    2SAPS   C13  140   1.179   0.580   8.006  0.4313 -0.1087  0.0359
    2SAPS  O13A  141   1.194   0.458   7.969  0.2402 -0.0905  0.1222
    2SAPS  O13B  142   1.265   0.634   8.080 -0.0505  0.1587 -0.0488
    2SAPS   C11  143   1.078   0.799   7.914  0.1863  0.0828 -0.1868
    2SAPS  H11A  144   1.132   0.793   7.817 -0.4235 -1.0412 -0.4829
    2SAPS  H11B  145   1.143   0.845   7.990  0.6035 -2.6934  1.2641
    2SAPS     P  146   0.969   1.016   7.858  0.3194 -0.0991 -0.2817
    2SAPS   O13  147   0.885   1.091   7.951 -0.2188 -0.0550  0.1423
    2SAPS   O14  148   1.112   1.049   7.855  0.5948 -0.3492  0.3656
    2SAPS   O12  149   0.958   0.864   7.897 -0.0598  0.2544  0.2422
    2SAPS   O11  150   0.911   1.021   7.711 -0.1412  0.2577  0.5934
    2SAPS    C1  151   0.854   0.909   7.639  0.0780 -0.4772  0.0059
    2SAPS    HA  152   0.938   0.841   7.613 -0.1756 -0.5349 -0.6935
    2SAPS    HB  153   0.780   0.854   7.701 -0.3357 -1.1801 -1.0582
    2SAPS    C2  154   0.775   0.955   7.522  0.1716  0.5503 -0.4545
    2SAPS    HS  155   0.735   0.868   7.465 -1.9121 -1.0227  3.0610
    2SAPS   O21  156   0.867   1.040   7.448  0.2978  0.6127 -0.1697
    2SAPS   C21  157   0.956   0.988   7.362 -0.1799  0.5126  0.4205
    2SAPS   O22  158   0.955   0.870   7.328  0.2349  0.4296 -0.3418
    2SAPS   C22  159   1.061   1.094   7.332  0.4125  0.2970 -0.3861
    2SAPS   H2R  160   1.075   1.150   7.428 -0.8751 -0.0102  0.0068
    2SAPS   H2S  161   1.152   1.034   7.314  0.4170 -0.7276  2.5100
    2SAPS    C3  162   0.653   1.041   7.568  0.2783 -0.2513 -0.1774
    2SAPS    HX  163   0.689   1.096   7.657  1.3937 -1.7732  0.3591
    2SAPS    HY  164   0.572   0.973   7.601  0.7685 -0.6502  0.2249
    2SAPS   O31  165   0.600   1.139   7.476 -0.1452  0.1390  0.5357
    2SAPS   C31  166   0.553   1.088   7.357  0.7983 -0.2089 -0.8153
    2SAPS   O32  167   0.552   0.975   7.325  0.1202  0.9517 -0.2466
    2SAPS   C32  168   0.520   1.205   7.267  0.1325 -0.6289 -0.0732
    2SAPS   H2X  169   0.589   1.283   7.305  0.6940 -1.8830  1.5938
    2SAPS   H2Y  170   0.419   1.251   7.277 -0.8745 -2.6221 -0.6349
    2SAPS   C23  171   1.016   1.176   7.214 -0.0436 -0.0200 -0.5970
    2SAPS   H3R  172   1.084   1.264   7.216 -1.8101  1.4014  0.0235
    2SAPS   H3S  173   0.908   1.203   7.216 -0.2927 -0.3615 -3.8025
    2SAPS   C24  174   1.047   1.099   7.072 -0.0712 -0.3227 -0.7675
    2SAPS   H4R  175   0.988   1.153   6.996 -0.5657  1.9532  1.0980
    2SAPS   H4S  176   1.023   0.991   7.075  0.7069 -0.5202 -1.3190
    2SAPS   C25  177   1.189   1.111   7.023 -0.4942  0.2047  0.2424
    2SAPS   H5R  178   1.270   1.072   7.087 -0.1743 -1.7360 -1.2484
    2SAPS   C26  179   1.234   1.134   6.897 -0.3591 -0.1172  0.3478
    2SAPS   H6R  180   1.343   1.135   6.882 -0.3049 -1.2407  0.5819
    2SAPS   C27  181   1.153   1.168   6.775  0.4594 -0.5431  0.5907
    2SAPS   H7R  182   1.058   1.217   6.805 -0.0543 -1.3375  0.2915
    2SAPS   H7S  183   1.115   1.074   6.730  1.2166 -0.6667  0.1851
    2SAPS   C28  184   1.232   1.250   6.666 -0.6519  0.0290 -0.6227
    2SAPS   H8R  185   1.285   1.332   6.717 -1.4486 -0.3557  0.8654
    2SAPS   C29  186   1.247   1.214   6.543  0.5016  0.3762  0.8837
    2SAPS   H9R  187   1.300   1.280   6.473 -3.9180  2.1233 -1.2027
    2SAPS  C210  188   1.183   1.088   6.481  0.4922 -0.0247  0.0446
    2SAPS  H10R  189   1.157   1.123   6.380 -2.4347  0.4148  0.8673
    2SAPS  H10S  190   1.086   1.058   6.527  0.5319  1.2676  1.0312
    2SAPS  C211  191   1.288   0.971   6.470 -0.0897  1.3226 -0.1071
    2SAPS  H11R  192   1.395   0.988   6.489  0.5672 -1.3821 -0.9816
    2SAPS  C212  193   1.255   0.843   6.440  0.4168 -0.0466 -0.2190
    2SAPS  H12R  194   1.338   0.780   6.402  0.5433  0.0019 -0.0269
    2SAPS  C213  195   1.119   0.786   6.398  0.5209 -0.0046  0.1997
    2SAPS  H13R  196   1.117   0.754   6.292  0.5252 -2.2004  0.8271
    2SAPS  H13S  197   1.038   0.862   6.400 -0.5918 -1.1570  1.6788
    2SAPS  C214  198   1.092   0.664   6.487  0.0105  0.1433  0.3893
    2SAPS  H14R  199   1.144   0.574   6.449 -2.0062 -0.3668 -1.4112
    2SAPS  C215  200   1.012   0.669   6.594 -0.0309  0.1082 -0.0512
    2SAPS  H15R  201   1.000   0.593   6.672 -1.2823  3.4552  3.3236
    2SAPS  C216  202   0.948   0.793   6.652 -0.1728 -0.2847 -0.2546
    2SAPS  H16R  203   0.838   0.780   6.647 -0.2078  0.4512 -2.3252
    2SAPS  H16S  204   0.967   0.882   6.587  0.8227 -1.1463 -1.1881
    2SAPS  C217  205   1.010   0.821   6.791 -0.3702  0.0563 -0.6752
    2SAPS  H17R  206   0.996   0.930   6.811 -0.0180  0.4276 -2.2853
    2SAPS  H17S  207   1.119   0.805   6.789 -0.1366  0.7464  2.3052
    2SAPS  C218  208   0.943   0.766   6.917  0.0334 -0.0886  0.4083
    2SAPS  H18R  209   1.010   0.786   7.003  1.0438  0.7431 -0.5243
    2SAPS  H18S  210   0.931   0.657   6.901  0.7434  0.1480 -2.4144
    2SAPS  C219  211   0.803   0.829   6.942 -0.0659 -0.6071  0.4585
    2SAPS  H19R  212   0.729   0.809   6.862  2.0741 -0.5912 -1.6156
    2SAPS  H19S  213   0.810   0.939   6.947  0.7405 -0.3340 -3.5336
    2SAPS  C220  214   0.745   0.766   7.069  0.2677  0.2602 -0.1929
    2SAPS  H20R  215   0.755   0.656   7.056  0.8625  0.5332 -2.3416
    2SAPS  H20S  216   0.641   0.806   7.075 -0.2435 -0.9689 -0.5662
    2SAPS  H20T  217   0.794   0.796   7.164  3.0990  0.8086 -1.7203
    2SAPS   C33  218   0.557   1.177   7.122  0.4197 -0.0662  0.6067
    2SAPS   H3X  219   0.481   1.107   7.081  0.5193 -1.0671  2.0412
    2SAPS   H3Y  220   0.657   1.128   7.114  1.5699  2.2894 -0.2464
    2SAPS   C34  221   0.565   1.300   7.030 -0.4011  0.6124 -0.0091
    2SAPS   H4X  222   0.652   1.367   7.050 -2.1066  2.9398 -0.0072
    2SAPS   H4Y  223   0.473   1.354   7.058  0.0825 -0.0860  3.4450
    2SAPS   C35  224   0.596   1.269   6.882  0.1469 -1.3942 -0.5791
    2SAPS   H5X  225   0.546   1.347   6.820  0.2714 -0.7780  0.0779
    2SAPS   H5Y  226   0.544   1.175   6.856 -2.3324 -0.1892 -0.2076
    2SAPS   C36  227   0.744   1.250   6.857  0.3831 -0.4265 -0.2128
    2SAPS   H6X  228   0.779   1.173   6.928  1.0532  0.6151  0.6200
    2SAPS   H6Y  229   0.803   1.341   6.881 -0.1190  0.1247 -0.9929
    2SAPS   C37  230   0.772   1.214   6.713 -0.0993 -0.2865  0.4069
    2SAPS   H7X  231   0.737   1.109   6.699 -1.4580 -0.0965  2.0678
    2SAPS   H7Y  232   0.882   1.202   6.707  0.1818  0.2678  3.1921
    2SAPS   C38  233   0.719   1.311   6.600  0.1913  1.0070  0.4093
    2SAPS   H8X  234   0.749   1.414   6.630  1.4793  0.3079  1.6621
    2SAPS   H8Y  235   0.610   1.291   6.591  0.5394 -0.0951 -2.3027
    2SAPS   C39  236   0.768   1.253   6.469 -0.1592 -0.2788  0.0676
    2SAPS   H9X  237   0.751   1.145   6.445 -3.2386  0.2055 -0.3134
    2SAPS   H9Y  238   0.878   1.267   6.475 -0.5655  2.8124  2.9947
    2SAPS  C310  239   0.713   1.335   6.352  0.3483  0.2888  0.2623
    2SAPS  H10X  240   0.781   1.422   6.352  0.4522  0.2254  1.5614
    2SAPS  H10Y  241   0.608   1.368   6.369 -0.5667 -2.1496 -0.2293
    2SAPS  C311  242   0.739   1.261   6.218  0.2290 -0.3629 -0.3393
    2SAPS  H11X  243   0.684   1.165   6.226 -0.7665  0.1965 -0.3490
    2SAPS  H11Y  244   0.848   1.237   6.211  0.5357  0.0426  2.2535
    2SAPS  C312  245   0.674   1.323   6.094  0.0521  0.2294 -0.0693
    2SAPS  H12X  246   0.708   1.426   6.069 -0.5813  0.4900  0.1182
    2SAPS  H12Y  247   0.567   1.345   6.117  0.4645  1.5012  0.7206
    2SAPS  C313  248   0.701   1.224   5.971  0.4865  0.1552 -0.4559
    2SAPS  H13X  249   0.639   1.133   5.987  1.5276 -0.6038 -0.6575
    2SAPS  H13Y  250   0.810   1.201   5.970  1.0520  2.5591 -1.6891
    2SAPS  C314  251   0.652   1.277   5.837 -0.3886 -0.1109 -0.0138
    2SAPS  H14X  252   0.663   1.387   5.832 -1.8003  0.0051 -1.6296
    2SAPS  H14Y  253   0.541   1.282   5.837 -0.3405  2.1285 -0.5181
    2SAPS  C315  254   0.694   1.196   5.710 -0.1741  0.1432  0.0959
    2SAPS  H15X  255   0.795   1.225   5.673 -0.8863  1.7227 -0.7043
    2SAPS  H15Y  256   0.635   1.240   5.627 -0.1790 -0.1626 -0.0634
    2SAPS  C316  257   0.655   1.048   5.704  0.4627 -0.0219  0.9640
    2SAPS  H16X  258   0.545   1.045   5.716  0.3599  3.6863  2.4034
    2SAPS  H16Y  259   0.694   0.990   5.790  0.7131  0.6692  1.3297
    2SAPS  C317  260   0.691   0.990   5.563 -0.1186 -0.8956  0.7669
    2SAPS  H17X  261   0.615   1.031   5.494  1.1578 -0.6813 -0.5653
    2SAPS  H17Y  262   0.656   0.886   5.580  0.6348 -0.9050  2.5919
    2SAPS  C318  263   0.837   1.011   5.507 -0.5575  0.3703  0.3654
    2SAPS  H18X  264   0.861   1.113   5.468  0.0100 -0.7670 -2.5126
    2SAPS  H18Y  265   0.848   0.941   5.422  0.3029  0.2560  0.5676
    2SAPS  H18Z  266   0.908   0.983   5.588 -0.3405  0.0605  0.0707
    3SAPS     N  267   2.254   1.387   7.820  0.0518  0.1530  0.1211
    3SAPS   HN1  268   2.289   1.346   7.731  0.7788  1.9413 -0.4565
    3SAPS   HN2  269   2.150   1.382   7.829  0.0746  0.0092  0.3066
    3SAPS   HN3  270   2.285   1.486   7.819 -2.3078  1.0030 -1.8236
    3SAPS   C12  271   2.313   1.327   7.940  0.5049 -0.9486  0.3926
    3SAPS  H12A  272   2.411   1.372   7.952 -0.2180  0.3845  1.6166
    3SAPS   C13  273   2.246   1.356   8.079  0.0796  0.2913  0.4347
    3SAPS  O13A  274   2.142   1.423   8.087  0.0101  0.5281  0.3386
    3SAPS  O13B  275   2.296   1.301   8.183  0.1488  0.0133 -0.0413
    3SAPS   C11  276   2.320   1.171   7.918 -0.4836 -0.4378  0.5186
    3SAPS  H11A  277   2.217   1.138   7.892  0.5559 -2.2789 -1.6281
    3SAPS  H11B  278   2.354   1.127   8.015 -0.0500  1.7353  1.4028
    3SAPS     P  279   2.550   1.111   7.806 -0.1886 -0.2131 -0.3826
    3SAPS   O13  280   2.613   1.207   7.901  0.8921  0.0323  0.0212
    3SAPS   O14  281   2.577   0.965   7.829  0.0792 -0.3162  0.4318
    3SAPS   O12  282   2.399   1.140   7.802  0.4429 -0.4358 -0.0097
    3SAPS   O11  283   2.586   1.143   7.658 -0.8918 -0.2863 -0.1813
    3SAPS    C1  284   2.574   1.050   7.553  0.1635  0.7121  0.0901
    3SAPS    HA  285   2.577   0.946   7.591  2.0514 -0.4914 -2.9292
    3SAPS    HB  286   2.478   1.069   7.500 -0.4770 -0.3109  0.8449
    3SAPS    C2  287   2.690   1.065   7.450  0.0524 -0.3591  0.2530
    3SAPS    HS  288   2.782   1.092   7.505  0.8963 -1.3461 -0.6186
    3SAPS   O21  289   2.643   1.163   7.364 -0.4221 -0.0279 -0.0892
    3SAPS   C21  290   2.744   1.235   7.317 -0.3157 -0.3621  0.7665
    3SAPS   O22  291   2.863   1.207   7.327  0.6360 -0.6140  0.4305
    3SAPS   C22  292   2.697   1.370   7.251  0.0014  0.3519 -0.3490
    3SAPS   H2R  293   2.643   1.423   7.332  1.2575 -1.2714  1.6531
    3SAPS   H2S  294   2.791   1.427   7.233 -0.2637  1.1566  0.7233
    3SAPS    C3  295   2.694   0.928   7.373 -0.6359  0.3306 -0.1847
    3SAPS    HX  296   2.738   0.845   7.432 -2.6765 -1.0697 -0.5082
    3SAPS    HY  297   2.760   0.957   7.289 -1.0231 -1.5285 -1.1721
    3SAPS   O31  298   2.564   0.888   7.337 -0.3861  0.4085 -0.3494
    3SAPS   C31  299   2.520   0.938   7.221 -0.6559  0.6123 -0.2926
    3SAPS   O32  300   2.589   0.982   7.133  0.1429  0.2090  0.1482
    3SAPS   C32  301   2.369   0.916   7.222 -0.1603  0.3437 -0.8058
    3SAPS   H2X  302   2.347   0.910   7.331  4.1260  2.0236  0.3699
    3SAPS   H2Y  303   2.351   0.815   7.181 -2.3846  0.0942  0.5918
    3SAPS   C23  304   2.611   1.342   7.130  0.2811  0.3610 -0.1450
    3SAPS   H3R  305   2.565   1.433   7.086 -1.4387 -1.5618 -2.6520
    3SAPS   H3S  306   2.526   1.282   7.168 -0.1870  0.7600 -0.5469
    3SAPS   C24  307   2.682   1.277   7.007 -0.0946  0.1827 -0.1412
    3SAPS   H4R  308   2.612   1.238   6.930 -0.7299  1.6643 -0.3362
    3SAPS   H4S  309   2.725   1.182   7.048 -1.2235 -0.6279 -0.7915
    3SAPS   C25  310   2.790   1.363   6.955  0.6847 -0.2706 -0.0417
    3SAPS   H5R  311   2.891   1.369   6.996  1.2232 -0.7560 -1.2420
    3SAPS   C26  312   2.776   1.448   6.854  0.0423 -0.0580  0.1547
    3SAPS   H6R  313   2.861   1.510   6.820 -0.5466 -0.2228 -1.7740
    3SAPS   C27  314   2.647   1.459   6.764 -0.6980  0.2406  0.0032
    3SAPS   H7R  315   2.648   1.564   6.729 -0.7280  0.2722  0.0960
    3SAPS   H7S  316   2.545   1.453   6.808 -1.1315  1.4555 -0.7707
    3SAPS   C28  317   2.621   1.364   6.649 -0.4523  0.2975 -0.0931
    3SAPS   H8R  318   2.580   1.266   6.677  1.5548 -0.2956  0.9505
    3SAPS   C29  319   2.641   1.387   6.517 -1.0121 -0.5323  0.3267
    3SAPS   H9R  320   2.626   1.303   6.448  0.8606  0.6692 -1.6703
    3SAPS  C210  321   2.693   1.513   6.448 -0.1921 -0.2318 -0.1380
    3SAPS  H10R  322   2.768   1.563   6.513  0.1655 -3.0396  1.7919
    3SAPS  H10S  323   2.605   1.580   6.441  0.1582  0.1527 -0.9503
    3SAPS  C211  324   2.756   1.487   6.316  0.3974 -0.2992 -0.5091
    3SAPS  H11R  325   2.832   1.408   6.320 -0.7757 -1.4141  1.2885
    3SAPS  C212  326   2.753   1.569   6.210  0.5686  0.1433 -0.1679
    3SAPS  H12R  327   2.794   1.532   6.115  0.5773  0.6607 -0.3677
    3SAPS  C213  328   2.682   1.698   6.184  0.0592 -0.2173 -0.1001
    3SAPS  H13R  329   2.615   1.717   6.270  0.7174 -0.2120  0.4206
    3SAPS  H13S  330   2.620   1.678   6.093  1.1687  0.7756 -1.1131
    3SAPS  C214  331   2.775   1.818   6.163  0.0897  0.0908  0.3534
    3SAPS  H14R  332   2.827   1.856   6.252  0.5009  4.9019 -1.6784
    3SAPS  C215  333   2.798   1.897   6.054  0.2147  0.4224 -0.5232
    3SAPS  H15R  334   2.877   1.974   6.057  0.1083  0.5161  1.9170
    3SAPS  C216  335   2.732   1.866   5.924  0.6189 -1.0322  0.1276
    3SAPS  H16R  336   2.684   1.766   5.923  0.2579 -0.8716  0.8719
    3SAPS  H16S  337   2.811   1.860   5.846  1.4837 -0.5311  0.9476
    3SAPS  C217  338   2.627   1.966   5.884  0.3598 -0.3120  0.2083
    3SAPS  H17R  339   2.674   2.066   5.897  2.5672 -1.4646  2.0207
    3SAPS  H17S  340   2.542   1.966   5.956  1.5394  0.7088  1.6897
    3SAPS  C218  341   2.584   1.956   5.736  0.3613  0.3464  0.1473
    3SAPS  H18R  342   2.524   1.865   5.716 -1.1230  1.4548 -0.7083
    3SAPS  H18S  343   2.673   1.969   5.671  0.5389  1.9597  0.6652
    3SAPS  C219  344   2.493   2.076   5.709  0.5576 -0.4008 -0.5165
    3SAPS  H19R  345   2.407   2.083   5.779  0.1505  3.6173 -1.1649
    3SAPS  H19S  346   2.563   2.160   5.730  2.2177 -1.2916 -2.1873
    3SAPS  C220  347   2.444   2.112   5.571  0.6593  0.3640  0.0152
    3SAPS  H20R  348   2.530   2.139   5.504  0.9994 -0.5277  0.0861
    3SAPS  H20S  349   2.386   2.206   5.580  1.9130  1.0364  1.5197
    3SAPS  H20T  350   2.389   2.029   5.522  0.8659 -0.3213  0.9216
    3SAPS   C33  351   2.275   1.020   7.155  0.0531  0.8216  0.7647
    3SAPS   H3X  352   2.323   1.120   7.158  1.4006  0.2016  0.6129
    3SAPS   H3Y  353   2.178   1.017   7.210 -0.6085 -0.6429 -0.4177
    3SAPS   C34  354   2.235   0.991   7.009  0.4345  0.4799  0.1985
    3SAPS   H4X  355   2.136   1.040   6.995  1.3761  2.3612 -0.0851
    3SAPS   H4Y  356   2.217   0.882   6.996 -2.5303  0.5583  2.4022
    3SAPS   C35  357   2.337   1.030   6.899 -0.5773  0.3314  0.0320
    3SAPS   H5X  358   2.342   1.141   6.901  0.4092  0.2876  1.5434
    3SAPS   H5Y  359   2.437   0.989   6.926 -0.1046  1.1650 -0.3946
    3SAPS   C36  360   2.311   0.982   6.755 -0.6623 -0.3871 -0.1846
    3SAPS   H6X  361   2.216   1.027   6.719 -0.8629  0.7582  1.6871
    3SAPS   H6Y  362   2.319   0.872   6.770  0.7770 -0.3120 -0.2882
    3SAPS   C37  363   2.423   1.022   6.666 -0.1887  0.2670 -0.0944
    3SAPS   H7X  364   2.525   1.003   6.708  1.1751  0.1900 -3.1501
    3SAPS   H7Y  365   2.428   1.130   6.642  0.0585 -0.0518 -1.5802
    3SAPS   C38  366   2.421   0.941   6.534  0.1233  0.1438 -0.2119
    3SAPS   H8X  367   2.320   0.961   6.491  0.5520  0.9904 -0.8591
    3SAPS   H8Y  368   2.422   0.833   6.557 -0.0487  0.3475  0.7925
    3SAPS   C39  369   2.514   0.989   6.422 -0.2285 -0.4951 -0.2062
    3SAPS   H9X  370   2.616   1.016   6.456 -0.7973  0.3246  0.9481
    3SAPS   H9Y  371   2.477   1.088   6.389 -0.3534 -0.0317  1.2300
    3SAPS  C310  372   2.519   0.887   6.308 -0.3906 -0.0148  0.3331
    3SAPS  H10X  373   2.416   0.847   6.292 -0.9869  0.8408  1.8581
    3SAPS  H10Y  374   2.567   0.790   6.335 -2.2013 -0.6593  1.4325
    3SAPS  C311  375   2.584   0.952   6.184  0.4026 -0.0605 -0.5160
    3SAPS  H11X  376   2.689   0.984   6.200 -0.4086  1.7477  1.6159
    3SAPS  H11Y  377   2.525   1.042   6.157  0.5932 -0.0622 -0.9473
    3SAPS  C312  378   2.586   0.849   6.065 -0.0952 -0.5703 -0.0051
    3SAPS  H12X  379   2.547   0.750   6.096 -0.3071 -0.5152 -0.0967
    3SAPS  H12Y  380   2.694   0.844   6.038 -0.8718 -0.0096 -3.7512
    3SAPS  C313  381   2.512   0.896   5.944  0.6015 -0.2167 -0.1752
    3SAPS  H13X  382   2.535   1.004   5.935 -1.8967  0.2739 -1.2146
    3SAPS  H13Y  383   2.405   0.889   5.971  0.9757 -1.8902  1.0563
    3SAPS  C314  384   2.538   0.829   5.812 -0.4819  0.3633 -0.1588
    3SAPS  H14X  385   2.506   0.723   5.824 -2.5987  0.9480 -0.2201
    3SAPS  H14Y  386   2.649   0.824   5.807 -0.2972  1.4407  1.7544
    3SAPS  C315  387   2.461   0.895   5.696 -0.1295  0.4413 -0.1065
    3SAPS  H15X  388   2.438   1.003   5.707  0.4323  0.8075 -2.0926
    3SAPS  H15Y  389   2.363   0.843   5.691  0.3186 -0.3910 -0.4907
    3SAPS  C316  390   2.545   0.890   5.567 -0.5057  0.1783 -0.4619
    3SAPS  H16X  391   2.642   0.938   5.590  0.1435 -1.5395  0.5466
    3SAPS  H16Y  392   2.497   0.951   5.487  0.9409 -0.3321 -1.7582
    3SAPS  C317  393   2.578   0.752   5.516 -0.4772  0.6115 -0.4485
    3SAPS  H17X  394   2.483   0.696   5.500  0.0550 -0.1841 -0.9026
    3SAPS  H17Y  395   2.631   0.701   5.599  0.8988  2.6017 -0.0375
    3SAPS  C318  396   2.667   0.736   5.384  0.3977  0.1671 -0.0227
    3SAPS  H18X  397   2.765   0.783   5.406 -1.7858  4.1524  2.2708
    3SAPS  H18Y  398   2.627   0.784   5.292  1.1460 -0.8536 -0.8969
    3SAPS  H18Z  399   2.687   0.629   5.362  0.7123  0.1641  0.2736
    4SAPS     N  400   0.627   3.146   7.378  0.0303 -0.3061 -0.0778
    4SAPS   HN1  401   0.581   3.135   7.285 -2.2402 -0.5648  1.0050
    4SAPS   HN2  402   0.698   3.219   7.359  2.0077 -2.5184 -1.7806
    4SAPS   HN3  403   0.665   3.056   7.413 -1.0290 -1.0462 -0.7501
    4SAPS   C12  404   0.538   3.201   7.483 -0.6733 -0.2149  0.6116
    4SAPS  H12A  405   0.463   3.122   7.484 -0.0767 -0.7884  0.6686
    4SAPS   C13  406   0.610   3.219   7.617 -0.2583  0.1632  0.3608
    4SAPS  O13A  407   0.711   3.141   7.637  0.2605 -1.0325 -0.3348
    4SAPS  O13B  408   0.550   3.270   7.712  0.2051 -0.3160 -0.0661
    4SAPS   C11  409   0.462   3.325   7.427  0.4434  0.5984  0.4888
    4SAPS  H11A  410   0.403   3.367   7.511 -0.5259  0.5300 -0.1488
    4SAPS  H11B  411   0.382   3.298   7.356  0.1443 -1.4502  1.5344
    4SAPS     P  412   0.578   3.567   7.412 -0.3057  0.2799 -0.1410
    4SAPS   O13  413   0.520   3.582   7.547 -0.3475  0.2084 -0.3515
    4SAPS   O14  414   0.722   3.588   7.384  0.6224  0.0603  0.1470
    4SAPS   O12  415   0.544   3.421   7.352 -0.3336  0.0685 -0.0573
    4SAPS   O11  416   0.500   3.661   7.313 -0.9174  0.4351 -0.4502
    4SAPS    C1  417   0.453   3.641   7.182 -0.1868 -0.1490 -1.0301
    4SAPS    HA  418   0.352   3.594   7.194  1.2782 -3.5832 -0.9333
    4SAPS    HB  419   0.439   3.741   7.137 -0.9423 -0.2905 -1.1218
    4SAPS    C2  420   0.549   3.552   7.094 -0.0680  0.2828  0.5148
    4SAPS    HS  421   0.564   3.446   7.125 -1.7536 -1.1408 -3.0229
    4SAPS   O21  422   0.668   3.626   7.080 -0.2155  0.3727  0.1723
    4SAPS   C21  423   0.771   3.550   7.056  0.2888  0.1207 -0.5403
    4SAPS   O22  424   0.782   3.431   7.074  0.2602  0.5246  0.2501
    4SAPS   C22  425   0.881   3.642   6.996  0.1167  0.1910  0.0661
    4SAPS   H2R  426   0.934   3.684   7.084  0.1542  1.0629 -0.3649
    4SAPS   H2S  427   0.945   3.573   6.937 -1.8704 -3.0152  1.3819
    4SAPS    C3  428   0.474   3.538   6.954  0.1785 -0.1901 -0.4546
    4SAPS    HX  429   0.436   3.640   6.933 -1.0773 -0.5441 -0.0196
    4SAPS    HY  430   0.386   3.472   6.967 -1.5461  2.1845  0.6671
    4SAPS   O31  431   0.566   3.498   6.844  0.1520  0.5428 -0.0901
    4SAPS   C31  432   0.555   3.376   6.806  0.1615 -0.1098  0.4566
    4SAPS   O32  433   0.490   3.294   6.868  0.4599  0.5799 -0.1522
    4SAPS   C32  434   0.630   3.350   6.675  0.0701 -0.3745 -0.3527
    4SAPS   H2X  435   0.562   3.292   6.609 -0.1294 -0.7306  0.1669
    4SAPS   H2Y  436   0.710   3.281   6.709  0.3314  0.5486  0.9961
    4SAPS   C23  437   0.836   3.742   6.893  0.4796  0.1002 -0.2062
    4SAPS   H3R  438   0.784   3.824   6.948 -0.1431 -1.3592  1.4711
    4SAPS   H3S  439   0.754   3.702   6.828 -0.7724  1.6617  0.3214
    4SAPS   C24  440   0.949   3.796   6.802 -0.6282 -0.6082  0.0910
    4SAPS   H4R  441   1.014   3.708   6.784 -0.2733 -0.0310 -1.7489
    4SAPS   H4S  442   1.003   3.867   6.868 -2.7577 -1.0145  2.3968
    4SAPS   C25  443   0.895   3.857   6.671  0.2634  0.6549  0.2958
    4SAPS   H5R  444   0.853   3.958   6.684  1.7396  1.1385  1.6063
    4SAPS   C26  445   0.917   3.809   6.548 -0.3725  0.1930 -0.3712
    4SAPS   H6R  446   0.873   3.866   6.465  0.5960  1.1774 -0.2264
    4SAPS   C27  447   0.983   3.677   6.520 -0.1699 -0.3350 -0.0166
    4SAPS   H7R  448   0.954   3.646   6.417 -1.3729  0.4813  0.0549
    4SAPS   H7S  449   0.934   3.599   6.581  0.1784  0.0240  0.7347
    4SAPS   C28  450   1.136   3.674   6.533  0.1551  0.1953  0.1489
    4SAPS   H8R  451   1.179   3.638   6.628  0.0725  0.6824  0.3787
    4SAPS   C29  452   1.221   3.711   6.430 -0.3339 -0.2870 -0.3174
    4SAPS   H9R  453   1.331   3.714   6.439 -0.4548  0.6241  1.0676
    4SAPS  C210  454   1.162   3.770   6.296  0.6776 -0.5134  0.6289
    4SAPS  H10R  455   1.219   3.854   6.250  0.9012  0.2853  2.2733
    4SAPS  H10S  456   1.058   3.805   6.308  0.8725 -0.1402  1.2766
    4SAPS  C211  457   1.162   3.655   6.200  0.4914 -0.7012  0.0599
    4SAPS  H11R  458   1.103   3.573   6.242 -0.9214  1.8024  3.3847
    4SAPS  C212  459   1.190   3.666   6.065  0.0781  0.1372  0.0043
    4SAPS  H12R  460   1.176   3.573   6.008 -1.3453  1.4490 -1.9172
    4SAPS  C213  461   1.249   3.789   5.992  0.2488  0.2936 -0.0971
    4SAPS  H13R  462   1.313   3.848   6.060 -0.8639  0.8195  0.5334
    4SAPS  H13S  463   1.167   3.859   5.964 -0.0019 -0.7488 -2.1529
    4SAPS  C214  464   1.334   3.764   5.869  0.3243  0.1914 -1.2430
    4SAPS  H14R  465   1.337   3.658   5.841  1.7959 -0.8633  2.3567
    4SAPS  C215  466   1.400   3.855   5.799  0.4834  0.1121  0.5949
    4SAPS  H15R  467   1.453   3.835   5.705  0.1123  0.4825  0.3015
    4SAPS  C216  468   1.389   4.005   5.828  0.1911  0.6576 -0.3475
    4SAPS  H16R  469   1.349   4.028   5.929 -0.0464 -0.5051 -0.1604
    4SAPS  H16S  470   1.331   4.065   5.754  2.3316  2.1788 -0.8810
    4SAPS  C217  471   1.529   4.063   5.814 -0.1112  0.1045 -0.4051
    4SAPS  H17R  472   1.518   4.173   5.824 -0.5025  0.0505 -0.2141
    4SAPS  H17S  473   1.556   4.049   5.707 -3.6901  1.6161 -1.6645
    4SAPS  C218  474   1.645   4.019   5.916  0.5293 -0.1239  0.3584
    4SAPS  H18R  475   1.700   3.932   5.875  0.4700 -0.3841  0.8293
    4SAPS  H18S  476   1.602   3.987   6.013  0.3448 -1.5988 -0.1703
    4SAPS  C219  477   1.747   4.132   5.943 -0.0607  0.1757 -0.4161
    4SAPS  H19R  478   1.698   4.231   5.953 -1.7758 -0.8180  2.3918
    4SAPS  H19S  479   1.806   4.122   5.849  1.6913 -1.1568  0.7519
    4SAPS  C220  480   1.841   4.107   6.063  0.6031  0.5206  0.2481
    4SAPS  H20R  481   1.912   4.192   6.072  0.5040  0.8967 -2.0294
    4SAPS  H20S  482   1.890   4.008   6.053  0.2256  0.4780 -1.4008
    4SAPS  H20T  483   1.787   4.089   6.159  1.5075 -2.7985  0.2396
    4SAPS   C33  484   0.660   3.471   6.593 -0.6125  0.5175  0.0606
    4SAPS   H3X  485   0.737   3.527   6.651  0.1897  0.8348 -1.2719
    4SAPS   H3Y  486   0.571   3.537   6.592 -0.9620  0.1313 -2.7264
    4SAPS   C34  487   0.696   3.428   6.450  0.2203 -0.6004  0.6722
    4SAPS   H4X  488   0.627   3.344   6.425  0.0867  0.4699 -3.1976
    4SAPS   H4Y  489   0.800   3.387   6.449  0.2184 -0.6033  0.6068
    4SAPS   C35  490   0.684   3.543   6.353  0.9056  0.4563  0.3258
    4SAPS   H5X  491   0.775   3.602   6.380  0.6128 -0.2166  3.0482
    4SAPS   H5Y  492   0.588   3.597   6.367 -0.1407 -1.0087 -0.8426
    4SAPS   C36  493   0.699   3.500   6.205 -0.0209  0.0170  0.2416
    4SAPS   H6X  494   0.603   3.511   6.151  0.4305 -0.7408 -0.7423
    4SAPS   H6Y  495   0.746   3.400   6.189 -0.0912  0.0785 -0.3996
    4SAPS   C37  496   0.791   3.602   6.132 -0.2858  0.4048  0.2940
    4SAPS   H7X  497   0.880   3.619   6.195  1.2794 -1.2457 -1.3412
    4SAPS   H7Y  498   0.736   3.698   6.135 -2.2228 -0.4160 -3.1415
    4SAPS   C38  499   0.826   3.571   5.987 -0.2916 -0.8977  0.2061
    4SAPS   H8X  500   0.736   3.547   5.926  0.9556 -0.5247 -1.8496
    4SAPS   H8Y  501   0.887   3.479   5.992 -1.0724 -1.4087  0.6563
    4SAPS   C39  502   0.880   3.685   5.904  0.1739 -0.2169 -0.8972
    4SAPS   H9X  503   0.970   3.735   5.946 -0.6546 -0.3445  1.1248
    4SAPS   H9Y  504   0.790   3.750   5.909  0.0900 -0.4318  0.9126
    4SAPS  C310  505   0.907   3.645   5.757 -0.0470  0.6301 -0.1547
    4SAPS  H10X  506   0.818   3.623   5.694 -0.6575  0.2085  0.8330
    4SAPS  H10Y  507   0.968   3.552   5.762 -1.1459 -0.0615  0.9428
    4SAPS  C311  508   0.986   3.750   5.682  0.0517  0.1524 -0.6388
    4SAPS  H11X  509   1.071   3.784   5.744  1.3370  0.8482 -2.6903
    4SAPS  H11Y  510   0.917   3.834   5.661 -0.1528 -0.7403 -4.1414
    4SAPS  C312  511   1.041   3.716   5.543  0.0808 -0.5687 -0.4152
    4SAPS  H12X  512   0.962   3.696   5.467 -0.3011 -0.1688 -0.1292
    4SAPS  H12Y  513   1.090   3.616   5.547  0.9609 -0.1363 -0.3547
    4SAPS  C313  514   1.142   3.824   5.495  0.0793 -0.0008 -0.5015
    4SAPS  H13X  515   1.226   3.825   5.568  0.1787  0.3011 -0.6188
    4SAPS  H13Y  516   1.093   3.922   5.473  0.9204  0.5535  0.0248
    4SAPS  C314  517   1.210   3.775   5.363  0.1790 -0.6671 -0.5644
    4SAPS  H14X  518   1.121   3.769   5.297 -0.7395 -2.2836  0.7267
    4SAPS  H14Y  519   1.251   3.673   5.381 -1.1103 -1.0959  0.0304
    4SAPS  C315  520   1.302   3.871   5.295 -0.0166 -0.7164 -0.4790
    4SAPS  H15X  521   1.246   3.960   5.258 -1.5957 -1.7109 -0.5925
    4SAPS  H15Y  522   1.351   3.826   5.206 -1.3451  0.4232 -1.8419
    4SAPS  C316  523   1.423   3.924   5.382 -0.1697 -0.4918  0.0301
    4SAPS  H16X  524   1.392   3.953   5.485  1.0049  0.8796  0.0172
    4SAPS  H16Y  525   1.461   4.020   5.343 -1.7146 -0.0195 -0.3777
    4SAPS  C317  526   1.542   3.827   5.393  0.5294  1.3958  0.1936
    4SAPS  H17X  527   1.562   3.801   5.287 -2.7148 -0.2384 -0.1454
    4SAPS  H17Y  528   1.502   3.733   5.438  0.7656  0.8436 -0.7211
    4SAPS  C318  529   1.660   3.888   5.463  0.3252  1.2234  0.0893
    4SAPS  H18X  530   1.676   3.861   5.569  2.3318  1.9954  0.0394
    4SAPS  H18Y  531   1.664   3.998   5.449  1.4170  0.9951 -1.6758
    4SAPS  H18Z  532   1.754   3.853   5.415  0.3781  1.6980 -0.1580
    5SAPS     N  533   2.804   5.988   7.717 -0.2083  0.2001  0.1699
    5SAPS   HN1  534   2.872   5.933   7.661 -1.3761 -0.8370 -0.2770
    5SAPS   HN2  535   2.746   6.041   7.650  0.9910  0.1873 -0.9044
    5SAPS   HN3  536   2.856   6.063   7.766  0.4919 -1.0415  1.4253
    5SAPS   C12  537   2.721   5.906   7.807  0.1553 -0.6465  1.0607
    5SAPS  H12A  538   2.785   5.831   7.851  1.3331 -1.5327 -1.9162
    5SAPS   C13  539   2.663   5.988   7.924  0.1219 -0.1518 -0.9900
    5SAPS  O13A  540   2.704   6.102   7.961 -0.0967 -0.5632 -0.2151
    5SAPS  O13B  541   2.595   5.921   8.012 -0.6088  0.1562  0.0520
    5SAPS   C11  542   2.607   5.842   7.725  0.0386  0.2913 -0.3072
    5SAPS  H11A  543   2.554   5.918   7.664 -0.9907 -1.5750 -1.8880
    5SAPS  H11B  544   2.534   5.806   7.800 -1.9705  2.3400 -1.1537
    5SAPS     P  545   2.561   5.659   7.546  0.1865 -0.4615  0.0680
    5SAPS   O13  546   2.503   5.545   7.620 -0.4276 -0.4503  0.0867
    5SAPS   O14  547   2.468   5.756   7.484 -0.1983  0.7719 -0.0510
    5SAPS   O12  548   2.657   5.736   7.645 -0.7699 -0.1409 -0.6041
    5SAPS   O11  549   2.659   5.608   7.439 -1.1860 -0.2178 -0.7180
    5SAPS    C1  550   2.769   5.688   7.388 -0.3131 -0.3275 -0.1238
    5SAPS    HA  551   2.834   5.723   7.471  1.6853 -1.6685 -1.0529
    5SAPS    HB  552   2.829   5.616   7.329 -1.3305 -1.9887  0.7796
    5SAPS    C2  553   2.736   5.798   7.292  0.0057  0.7512 -0.0056
    5SAPS    HS  554   2.688   5.872   7.359  0.9677  0.8213  0.6221
    5SAPS   O21  555   2.649   5.732   7.197  0.1132  0.3092 -0.3903
    5SAPS   C21  556   2.548   5.807   7.149 -0.8729  0.3690 -0.3820
    5SAPS   O22  557   2.515   5.916   7.187 -0.0518 -0.9382  0.0130
    5SAPS   C22  558   2.492   5.731   7.026 -0.3340  0.4181  0.0853
    5SAPS   H2R  559   2.566   5.657   6.988  1.2469  1.7010  0.5122
    5SAPS   H2S  560   2.404   5.677   7.066 -1.1853  1.7466  0.0780
    5SAPS    C3  561   2.857   5.858   7.222 -0.0749 -0.0051 -0.3921
    5SAPS    HX  562   2.912   5.776   7.172 -0.2088 -2.5077  3.1651
    5SAPS    HY  563   2.932   5.896   7.295 -0.3857 -0.9330  0.4373
    5SAPS   O31  564   2.815   5.955   7.130 -0.1457 -0.4568 -0.0472
    5SAPS   C31  565   2.796   6.082   7.175 -0.0164 -0.2462  0.5049
    5SAPS   O32  566   2.823   6.120   7.287  0.0600  0.4688 -0.3392
    5SAPS   C32  567   2.729   6.165   7.069  0.1193 -0.0781  1.2065
    5SAPS   H2X  568   2.713   6.263   7.119 -0.4558 -0.0508  0.9763
    5SAPS   H2Y  569   2.638   6.108   7.043  0.8954  0.1936 -2.7976
    5SAPS   C23  570   2.431   5.822   6.918  0.3402  0.3143 -0.4053
    5SAPS   H3R  571   2.357   5.894   6.959  0.4455 -0.0157  0.3722
    5SAPS   H3S  572   2.377   5.749   6.854  0.0056  0.7255 -0.6009
    5SAPS   C24  573   2.540   5.906   6.848 -0.3011 -0.6783 -0.4343
    5SAPS   H4R  574   2.605   5.969   6.913 -1.3351 -0.8430  0.7913
    5SAPS   H4S  575   2.477   5.979   6.791 -2.1724 -2.7056 -1.0846
    5SAPS   C25  576   2.638   5.830   6.763  0.0602 -0.3369 -0.4690
    5SAPS   H5R  577   2.720   5.781   6.817  1.4690  3.2938  0.9829
    5SAPS   C26  578   2.641   5.816   6.626 -0.1793 -0.6816 -0.0507
    5SAPS   H6R  579   2.729   5.762   6.587 -2.0124 -4.7710  0.9099
    5SAPS   C27  580   2.559   5.891   6.519  0.6773  0.7503 -0.3318
    5SAPS   H7R  581   2.621   5.961   6.458 -0.6851  0.9075 -1.5887
    5SAPS   H7S  582   2.489   5.961   6.569  0.4677 -0.5583  1.2697
    5SAPS   C28  583   2.483   5.796   6.438 -0.3561 -0.1434  0.2128
    5SAPS   H8R  584   2.393   5.763   6.493 -2.4024  2.7348 -1.1200
    5SAPS   C29  585   2.508   5.764   6.308  0.5957 -1.1652  0.0843
    5SAPS   H9R  586   2.435   5.701   6.255 -0.0891 -0.3711  0.0637
    5SAPS  C210  587   2.628   5.815   6.220  0.0116 -0.0487 -0.0911
    5SAPS  H10R  588   2.720   5.756   6.243  0.1368 -0.0503 -0.5983
    5SAPS  H10S  589   2.657   5.920   6.240 -0.8774  0.3435 -0.7978
    5SAPS  C211  590   2.589   5.821   6.074 -0.4731  0.1227 -0.2721
    5SAPS  H11R  591   2.505   5.754   6.051  0.7671 -1.3435 -0.7568
    5SAPS  C212  592   2.641   5.903   5.981  0.7389  0.5994 -0.7618
    5SAPS  H12R  593   2.607   5.885   5.878  0.0938  1.0727 -0.6371
    5SAPS  C213  594   2.753   6.004   6.004  0.2485 -0.4301  0.8591
    5SAPS  H13R  595   2.845   5.962   5.958 -1.2671 -2.2667 -0.6337
    5SAPS  H13S  596   2.789   6.022   6.108  0.8219  1.1334  0.4179
    5SAPS  C214  597   2.727   6.140   5.944 -0.3441  0.2558 -0.5894
    5SAPS  H14R  598   2.683   6.205   6.021  1.0713  1.4503 -0.7392
    5SAPS  C215  599   2.754   6.182   5.820  0.5653 -0.6031  0.5572
    5SAPS  H15R  600   2.724   6.286   5.802 -0.4517 -0.9907 -0.0872
    5SAPS  C216  601   2.805   6.106   5.702 -0.4050  0.9702  0.4392
    5SAPS  H16R  602   2.726   6.107   5.623 -0.6735  0.1549  0.6890
    5SAPS  H16S  603   2.826   5.997   5.710  1.5247  1.1947 -1.0160
    5SAPS  C217  604   2.920   6.169   5.635  0.1281  0.0782 -0.0052
    5SAPS  H17R  605   3.008   6.153   5.701 -1.0134 -1.3264  1.2378
    5SAPS  H17S  606   2.907   6.278   5.619  1.0265  0.2059  0.0305
    5SAPS  C218  607   2.944   6.109   5.495  0.2464  0.1003  0.5012
    5SAPS  H18R  608   2.855   6.114   5.428  2.2475  1.4932 -2.2269
    5SAPS  H18S  609   2.959   5.999   5.489 -0.0268  0.1313 -1.0602
    5SAPS  C219  610   3.056   6.190   5.427 -0.2655  0.0132 -0.1901
    5SAPS  H19R  611   3.160   6.164   5.457  0.0426  2.5917  1.2651
    5SAPS  H19S  612   3.039   6.292   5.466  0.3071 -0.4388  1.3269
    5SAPS  C220  613   3.039   6.186   5.274  0.5633  0.8562  0.1855
    5SAPS  H20R  614   3.138   6.197   5.225 -0.1011 -1.3994 -1.8197
    5SAPS  H20S  615   2.971   6.265   5.237 -0.0675  1.4866  2.4859
    5SAPS  H20T  616   2.991   6.091   5.245  0.4396  0.7977  0.5696
    5SAPS   C33  617   2.808   6.176   6.940 -0.5054 -0.1304  1.1312
    5SAPS   H3X  618   2.744   6.235   6.871  1.6090  0.2729 -0.5934
    5SAPS   H3Y  619   2.837   6.076   6.903 -0.9421 -0.4233  1.5596
    5SAPS   C34  620   2.929   6.280   6.958  0.2142  0.9601  0.5524
    5SAPS   H4X  621   2.986   6.255   7.049  0.5366  2.1804  0.6919
    5SAPS   H4Y  622   2.884   6.381   6.970 -0.4485  0.8462 -0.7667
    5SAPS   C35  623   3.031   6.284   6.846  0.0202 -0.3162 -0.2607
    5SAPS   H5X  624   3.102   6.199   6.855  0.4163 -0.1394 -1.4590
    5SAPS   H5Y  625   3.084   6.380   6.859 -0.3474 -0.3791  2.2456
    5SAPS   C36  626   2.971   6.278   6.703  0.6648  0.1279  0.2945
    5SAPS   H6X  627   2.903   6.367   6.702  1.6669  1.0373  3.0757
    5SAPS   H6Y  628   2.905   6.190   6.693 -3.5400  3.0956 -1.0442
    5SAPS   C37  629   3.074   6.277   6.586 -0.1538  0.3089  0.4448
    5SAPS   H7X  630   3.126   6.180   6.596  0.0237  0.3129 -0.3519
    5SAPS   H7Y  631   3.148   6.357   6.606  0.5936  0.0297 -1.0731
    5SAPS   C38  632   3.020   6.287   6.442  0.1586  0.0036  0.3463
    5SAPS   H8X  633   2.975   6.388   6.430  0.8530  0.1978 -0.7973
    5SAPS   H8Y  634   2.946   6.205   6.438  0.1019 -0.1462  2.8561
    5SAPS   C39  635   3.124   6.270   6.330  1.0563 -1.1823  0.5298
    5SAPS   H9X  636   3.185   6.179   6.348 -1.2610 -2.7674  0.8142
    5SAPS   H9Y  637   3.185   6.363   6.332  0.9305 -0.9863 -2.0885
    5SAPS  C310  638   3.071   6.262   6.184 -0.3799 -0.1013  0.4978
    5SAPS  H10X  639   2.994   6.336   6.154  1.7697  0.9578 -3.1389
    5SAPS  H10Y  640   3.011   6.169   6.177 -0.7508  0.1333  0.5313
    5SAPS  C311  641   3.196   6.272   6.092  0.4089 -0.1597  0.4316
    5SAPS  H11X  642   3.266   6.196   6.132 -0.2852  0.0177  2.0380
    5SAPS  H11Y  643   3.237   6.375   6.105  0.3977  0.2809 -2.2637
    5SAPS  C312  644   3.158   6.253   5.950 -0.0199  0.1557  0.9655
    5SAPS  H12X  645   3.087   6.329   5.911 -2.1833 -0.3909  3.5833
    5SAPS  H12Y  646   3.117   6.153   5.927  0.4109  0.1444  0.1806
    5SAPS  C313  647   3.287   6.257   5.855  0.2780 -0.2213 -0.3200
    5SAPS  H13X  648   3.319   6.158   5.818 -2.8749 -0.8759 -1.6264
    5SAPS  H13Y  649   3.371   6.304   5.910 -0.4046 -1.1641  1.6156
    5SAPS  C314  650   3.252   6.349   5.733 -0.3112 -0.0546 -0.6043
    5SAPS  H14X  651   3.214   6.437   5.789 -0.7145 -2.5079  3.3326
    5SAPS  H14Y  652   3.169   6.302   5.675 -0.3384 -0.1993 -0.4471
    5SAPS  C315  653   3.373   6.379   5.640  0.0996 -0.1634 -0.5246
    5SAPS  H15X  654   3.423   6.285   5.607  0.2827  0.0856 -0.9682
    5SAPS  H15Y  655   3.453   6.431   5.699 -0.9991 -1.1188  1.9360
    5SAPS  C316  656   3.345   6.458   5.513  0.0780  0.0557 -0.3190
    5SAPS  H16X  657   3.296   6.391   5.439 -2.5697  1.4731  0.0440
    5SAPS  H16Y  658   3.442   6.494   5.471 -0.2456  2.9398  1.1265
    5SAPS  C317  659   3.249   6.571   5.535 -0.1253 -0.1173 -0.1513
    5SAPS  H17X  660   3.292   6.638   5.613 -0.1151  3.0136 -2.6749
    5SAPS  H17Y  661   3.152   6.536   5.578  0.4998  2.0287  3.4479
    5SAPS  C318  662   3.240   6.666   5.412  0.0321  0.0300 -0.4481
    5SAPS  H18X  663   3.210   6.618   5.316  0.4050  0.6156 -0.8628
    5SAPS  H18Y  664   3.334   6.722   5.396  0.9148 -1.5279 -0.8518
    5SAPS  H18Z  665   3.166   6.746   5.437  0.2249 -0.1121  0.6324
    6SAPS     N  666   5.754   5.850   7.769 -0.2805  0.0066 -0.4297
    6SAPS   HN1  667   5.690   5.790   7.713  1.7466 -0.6259 -2.1668
    6SAPS   HN2  668   5.691   5.893   7.840  0.3327 -0.1859  0.2389
    6SAPS   HN3  669   5.793   5.917   7.700 -1.7559  3.4984  1.8232
    6SAPS   C12  670   5.860   5.752   7.818 -0.4460  0.9786 -0.4255
    6SAPS  H12A  671   5.921   5.803   7.891 -1.7503  1.1450  0.5865
    6SAPS   C13  672   5.786   5.628   7.887 -0.0047 -0.5806 -0.3644
    6SAPS  O13A  673   5.660   5.628   7.895  0.2467  0.2659 -0.1621
    6SAPS  O13B  674   5.853   5.522   7.894 -0.2987 -0.0107 -0.3591
    6SAPS   C11  675   5.942   5.697   7.692 -0.6147  0.0820  0.6254
    6SAPS  H11A  676   5.862   5.659   7.625 -0.8088 -0.0380  0.9211
    6SAPS  H11B  677   5.999   5.608   7.725 -0.1818 -0.8938 -2.4167
    6SAPS     P  678   6.059   5.777   7.477 -0.8008 -0.2308 -0.1560
    6SAPS   O13  679   6.120   5.902   7.433  0.3891 -1.0059 -0.4070
    6SAPS   O14  680   6.133   5.652   7.450 -0.2891 -0.0097  0.2551
    6SAPS   O12  681   6.031   5.795   7.627 -0.3550 -0.1499 -0.1294
    6SAPS   O11  682   5.905   5.762   7.421  0.0489  0.4548  0.4333
    6SAPS    C1  683   5.814   5.874   7.398 -0.0556 -0.3006 -0.0754
    6SAPS    HA  684   5.716   5.870   7.452 -0.0807  2.5995  0.2375
    6SAPS    HB  685   5.848   5.976   7.423  0.4510 -0.3484 -0.5606
    6SAPS    C2  686   5.784   5.873   7.250  0.1782 -0.0473  0.2158
    6SAPS    HS  687   5.729   5.780   7.225 -2.2924  0.7272  2.4099
    6SAPS   O21  688   5.910   5.887   7.186 -0.5282  0.5936 -0.1072
    6SAPS   C21  689   5.964   5.770   7.140 -0.4088  0.1316  0.4790
    6SAPS   O22  690   5.912   5.663   7.146  0.3511  0.4366 -0.3677
    6SAPS   C22  691   6.093   5.800   7.071 -0.0567 -0.0058  0.0866
    6SAPS   H2R  692   6.179   5.793   7.141  0.4709  3.1180 -0.1053
    6SAPS   H2S  693   6.100   5.717   6.997 -0.6248 -0.9732  1.0838
    6SAPS    C3  694   5.699   5.994   7.202  0.3129 -0.4960 -0.0996
    6SAPS    HX  695   5.763   6.082   7.226 -0.5368  1.1422 -3.2502
    6SAPS    HY  696   5.606   6.005   7.262 -0.6479  1.4254 -1.7988
    6SAPS   O31  697   5.667   5.989   7.068 -0.2318 -0.7723  0.4154
    6SAPS   C31  698   5.738   6.071   6.988  0.7275  0.4844  0.4336
    6SAPS   O32  699   5.811   6.160   7.022  0.0411 -0.2367 -0.1788
    6SAPS   C32  700   5.724   6.033   6.836  0.0394 -0.4339  0.1831
    6SAPS   H2X  701   5.615   6.038   6.817 -0.3676  1.6181  2.4962
    6SAPS   H2Y  702   5.755   5.927   6.821 -0.2107 -0.9669  2.9617
    6SAPS   C23  703   6.105   5.943   7.003 -0.2594  0.5544 -0.7880
    6SAPS   H3R  704   6.101   6.021   7.082 -1.5569 -0.6656  0.4274
    6SAPS   H3S  705   6.019   5.957   6.933  0.1064 -2.3798 -1.9629
    6SAPS   C24  706   6.251   5.964   6.937 -0.1484  0.3447  0.5668
    6SAPS   H4R  707   6.266   5.879   6.867 -0.2251 -0.0432  1.0156
    6SAPS   H4S  708   6.316   5.959   7.027 -0.8669 -0.2626  1.0694
    6SAPS   C25  709   6.284   6.101   6.871  0.5630 -0.2887 -0.0940
    6SAPS   H5R  710   6.333   6.176   6.935 -2.2323  0.8278  0.8745
    6SAPS   C26  711   6.253   6.136   6.744  0.9196  0.4091 -0.0573
    6SAPS   H6R  712   6.272   6.239   6.710  2.3098  0.4222  0.6755
    6SAPS   C27  713   6.190   6.045   6.645 -0.4094  0.2845 -0.1906
    6SAPS   H7R  714   6.133   6.112   6.578 -0.0027  0.0357 -0.7894
    6SAPS   H7S  715   6.113   5.980   6.692 -0.6256  1.2898  0.8957
    6SAPS   C28  716   6.300   5.963   6.574  0.6729 -0.1892  0.4244
    6SAPS   H8R  717   6.362   5.900   6.639 -0.8717 -1.6042  0.5972
    6SAPS   C29  718   6.337   5.968   6.446  0.6606  0.2495  0.1477
    6SAPS   H9R  719   6.424   5.909   6.413 -0.6841 -2.0985  0.5314
    6SAPS  C210  720   6.268   6.047   6.334  0.0096 -0.3517  0.5377
    6SAPS  H10R  721   6.312   6.149   6.343  0.1497 -0.1394 -1.8578
    6SAPS  H10S  722   6.161   6.063   6.359  0.2598  0.5164  1.0949
    6SAPS  C211  723   6.293   5.995   6.195 -0.0173  0.5434 -0.7247
    6SAPS  H11R  724   6.372   5.918   6.188 -0.1610  0.5368 -2.9545
    6SAPS  C212  725   6.234   6.033   6.079 -0.2611  0.5447  0.4512
    6SAPS  H12R  726   6.274   5.977   5.993  1.3996 -0.1029  1.5845
    6SAPS  C213  727   6.129   6.133   6.073  0.4701 -0.6141  0.5531
    6SAPS  H13R  728   6.123   6.187   6.170  2.1702  0.6260  0.0239
    6SAPS  H13S  729   6.039   6.069   6.062  1.6533 -2.3648  0.7005
    6SAPS  C214  730   6.157   6.229   5.958  0.3571  0.8687  0.3053
    6SAPS  H14R  731   6.215   6.318   5.985  1.0679  0.6050 -0.3123
    6SAPS  C215  732   6.128   6.211   5.828 -0.3529  0.0550 -0.0275
    6SAPS  H15R  733   6.148   6.296   5.760 -1.1305 -0.2300 -0.6252
    6SAPS  C216  734   6.048   6.103   5.766  0.5716  0.8010 -0.6425
    6SAPS  H16R  735   5.988   6.052   5.844  0.5391  1.2192 -0.3856
    6SAPS  H16S  736   6.123   6.039   5.716  0.9590  0.2943  0.5569
    6SAPS  C217  737   5.967   6.150   5.654  0.4800 -0.4772  0.2343
    6SAPS  H17R  738   5.919   6.062   5.606 -0.6769  0.7512 -0.9716
    6SAPS  H17S  739   6.041   6.186   5.579  0.7879 -2.5504 -0.4977
    6SAPS  C218  740   5.868   6.267   5.670 -0.4738 -0.4545  0.3124
    6SAPS  H18R  741   5.925   6.360   5.695  0.3154 -0.8860  0.1684
    6SAPS  H18S  742   5.785   6.244   5.740 -1.2215 -0.0997 -0.4403
    6SAPS  C219  743   5.798   6.296   5.531 -0.1083  0.1625 -0.3456
    6SAPS  H19R  744   5.741   6.202   5.516  0.5233 -0.6589  2.0476
    6SAPS  H19S  745   5.879   6.311   5.456  0.5489 -0.8673  0.1435
    6SAPS  C220  746   5.700   6.413   5.534 -0.0671  0.2106 -0.2579
    6SAPS  H20R  747   5.626   6.401   5.616  0.8281  0.2394  0.5724
    6SAPS  H20S  748   5.660   6.427   5.432  0.1770 -1.6274 -0.6442
    6SAPS  H20T  749   5.751   6.509   5.554 -2.6762  1.9120 -1.1981
    6SAPS   C33  750   5.798   6.123   6.741  0.7116 -0.0935  0.0447
    6SAPS   H3X  751   5.908   6.118   6.755  1.0619  0.3021 -2.1418
    6SAPS   H3Y  752   5.758   6.225   6.757  0.7827  0.7955 -4.2271
    6SAPS   C34  753   5.766   6.101   6.592 -0.3761 -0.2255 -0.0690
    6SAPS   H4X  754   5.815   6.007   6.559  0.3731 -1.2938  3.5402
    6SAPS   H4Y  755   5.820   6.181   6.537 -0.3462  0.4694  0.9331
    6SAPS   C35  756   5.620   6.110   6.547 -0.2355  0.3917 -0.3752
    6SAPS   H5X  757   5.583   6.213   6.564 -0.6745  0.1288  0.2875
    6SAPS   H5Y  758   5.557   6.042   6.608 -0.3671  0.6285 -0.2459
    6SAPS   C36  759   5.595   6.078   6.400 -0.4949 -0.1729  0.7784
    6SAPS   H6X  760   5.485   6.082   6.388 -0.4161  0.2558  0.1869
    6SAPS   H6Y  761   5.645   5.981   6.379  0.2574  0.5784 -1.0865
    6SAPS   C37  762   5.657   6.184   6.306  0.7205 -0.2053 -0.0988
    6SAPS   H7X  763   5.768   6.182   6.302  0.6945 -0.1291 -3.1069
    6SAPS   H7Y  764   5.626   6.282   6.346 -0.7924 -1.1377  1.1425
    6SAPS   C38  765   5.604   6.185   6.161 -0.2611 -0.2936  0.3481
    6SAPS   H8X  766   5.637   6.280   6.114 -0.4694  0.1068  0.9998
    6SAPS   H8Y  767   5.494   6.202   6.161 -0.5533 -1.6667 -2.7141
    6SAPS   C39  768   5.662   6.065   6.084 -0.0664  0.3757 -0.5569
    6SAPS   H9X  769   5.617   5.978   6.137 -3.4641  2.7213  0.7713
    6SAPS   H9Y  770   5.771   6.058   6.099 -0.2053 -2.3657 -0.3852
    6SAPS  C310  771   5.627   6.062   5.939  0.0138 -0.0818 -0.5939
    6SAPS  H10X  772   5.659   6.155   5.888 -0.1239  0.8486  0.9560
    6SAPS  H10Y  773   5.516   6.060   5.935 -0.3629  2.6268  3.1259
    6SAPS  C311  774   5.673   5.938   5.854  0.1951  0.2316 -0.5605
    6SAPS  H11X  775   5.655   5.844   5.910 -1.4375  0.7749 -0.1044
    6SAPS  H11Y  776   5.783   5.935   5.842  0.1465 -0.6999 -0.8724
    6SAPS  C312  777   5.609   5.939   5.712 -0.4027  0.4353 -0.0107
    6SAPS  H12X  778   5.642   6.040   5.680 -1.4230  1.4961  2.0570
    6SAPS  H12Y  779   5.499   5.953   5.710 -0.5175 -0.4365 -2.1120
    6SAPS  C313  780   5.665   5.827   5.617  0.5073  0.6519 -0.7629
    6SAPS  H13X  781   5.633   5.727   5.653  0.4329  1.2955  1.0376
    6SAPS  H13Y  782   5.775   5.844   5.613  0.3114  3.6810  2.1009
    6SAPS  C314  783   5.609   5.825   5.473 -0.4724  0.6903  0.0768
    6SAPS  H14X  784   5.632   5.923   5.428  0.8348  0.0305 -0.7681
    6SAPS  H14Y  785   5.498   5.821   5.472 -0.5841  2.8764  0.3485
    6SAPS  C315  786   5.671   5.720   5.382  0.2940  0.0477 -0.3011
    6SAPS  H15X  787   5.668   5.621   5.434 -1.6741  0.4101  0.3761
    6SAPS  H15Y  788   5.778   5.743   5.367  0.5376  0.8337  2.2002
    6SAPS  C316  789   5.590   5.719   5.253 -0.0573  0.0361 -0.0285
    6SAPS  H16X  790   5.585   5.824   5.218 -2.0192  0.5058  1.4841
    6SAPS  H16Y  791   5.492   5.679   5.284  0.2744 -1.5350 -0.9027
    6SAPS  C317  792   5.637   5.622   5.142 -0.1256  0.2912 -0.0833
    6SAPS  H17X  793   5.739   5.656   5.115  0.1330  0.4352  1.0197
    6SAPS  H17Y  794   5.571   5.635   5.054 -2.3488  0.3720  1.5037
    6SAPS  C318  795   5.628   5.473   5.169 -0.5013  0.4152 -0.0038
    6SAPS  H18X  796   5.710   5.450   5.240 -0.7505 -1.9977 -0.4304
    6SAPS  H18Y  797   5.644   5.418   5.074 -1.7794 -2.0247  1.1140
    6SAPS  H18Z  798   5.529   5.442   5.209  1.2049 -2.1731  2.5328
    7SAPS     N  799   2.574   1.697   7.505 -0.7406  0.2963  0.1660
    7SAPS   HN1  800   2.554   1.799   7.501 -1.0451  0.2133 -0.8170
    7SAPS   HN2  801   2.675   1.678   7.487 -0.4821  2.2074 -0.6843
    7SAPS   HN3  802   2.513   1.641   7.443  0.2670  1.0815 -1.6194
    7SAPS   C12  803   2.566   1.643   7.647 -0.0785  0.5515  0.0935
    7SAPS  H12A  804   2.602   1.720   7.714  0.6149  0.2171  0.1130
    7SAPS   C13  805   2.419   1.601   7.695 -0.4602  0.4145  0.2456
    7SAPS  O13A  806   2.326   1.626   7.615  0.2721 -0.6336  0.8718
    7SAPS  O13B  807   2.405   1.613   7.821  0.1221 -0.2230 -0.3946
    7SAPS   C11  808   2.668   1.518   7.654  0.2496  0.5705 -0.4166
    7SAPS  H11A  809   2.621   1.436   7.594  3.1461  0.8670 -3.3951
    7SAPS  H11B  810   2.673   1.505   7.764 -2.1572  1.4401 -0.1306
    7SAPS     P  811   2.917   1.582   7.656 -0.0435 -0.2359  0.3443
    7SAPS   O13  812   2.920   1.734   7.668  0.2324 -0.6894 -0.3426
    7SAPS   O14  813   2.933   1.501   7.770 -0.1577  0.8832 -0.1110
    7SAPS   O12  814   2.784   1.543   7.581 -0.4871  0.4338  0.2863
    7SAPS   O11  815   3.034   1.554   7.555  0.2768  1.1734  0.2987
    7SAPS    C1  816   3.023   1.561   7.416  0.5505  0.5880 -0.3647
    7SAPS    HA  817   3.086   1.477   7.379 -0.0877  0.4321 -1.1364
    7SAPS    HB  818   2.925   1.529   7.375  1.6683 -1.8303 -1.3893
    7SAPS    C2  819   3.063   1.692   7.355 -0.0121  0.4617  0.2239
    7SAPS    HS  820   3.022   1.768   7.424  0.2570 -0.7575  1.7769
    7SAPS   O21  821   3.007   1.712   7.222 -0.4193  0.6287 -0.2229
    7SAPS   C21  822   2.884   1.761   7.224 -0.1977  0.0637  0.1753
    7SAPS   O22  823   2.812   1.772   7.323 -0.6742  0.3372  0.7844
    7SAPS   C22  824   2.856   1.828   7.089 -0.0978 -0.4541 -0.3451
    7SAPS   H2R  825   2.932   1.909   7.084  0.0492 -0.5566  0.1324
    7SAPS   H2S  826   2.876   1.766   7.000  0.1873  1.0278 -1.3429
    7SAPS    C3  827   3.211   1.708   7.355 -0.1632  0.3086 -0.9780
    7SAPS    HX  828   3.259   1.617   7.314  3.1619  2.4741 -2.3513
    7SAPS    HY  829   3.240   1.710   7.463 -0.9378 -2.5574 -0.6460
    7SAPS   O31  830   3.251   1.819   7.280 -0.2677  0.8394  0.0604
    7SAPS   C31  831   3.352   1.815   7.200  1.0149  0.3117 -0.1518
    7SAPS   O32  832   3.427   1.719   7.189 -0.0107 -0.0247 -0.1435
    7SAPS   C32  833   3.347   1.942   7.115 -0.7112  0.1283 -0.2624
    7SAPS   H2X  834   3.442   1.944   7.058 -1.5616  0.0192 -1.7350
    7SAPS   H2Y  835   3.339   2.025   7.188 -1.3901 -0.8543  0.8245
    7SAPS   C23  836   2.712   1.882   7.083  0.0873 -0.1370  0.1771
    7SAPS   H3R  837   2.705   1.968   7.013 -1.6137 -1.5396 -1.5089
    7SAPS   H3S  838   2.689   1.933   7.179  1.9210  0.7159  0.1949
    7SAPS   C24  839   2.609   1.771   7.058 -0.1592  0.4749 -0.4460
    7SAPS   H4R  840   2.622   1.702   7.144  2.5576  0.2691 -0.9331
    7SAPS   H4S  841   2.636   1.715   6.966  0.2308 -1.7314  0.9208
    7SAPS   C25  842   2.468   1.825   7.055 -0.4215  0.1006  0.0227
    7SAPS   H5R  843   2.427   1.837   7.156 -0.5220  1.5761 -0.1707
    7SAPS   C26  844   2.390   1.857   6.955  0.7551  0.6391 -0.2300
    7SAPS   H6R  845   2.287   1.879   6.986 -0.1175 -1.0187 -1.7638
    7SAPS   C27  846   2.435   1.860   6.810  0.1036  0.1478 -1.2290
    7SAPS   H7R  847   2.358   1.810   6.748  0.3428  0.7482 -2.0174
    7SAPS   H7S  848   2.514   1.782   6.797  1.7939  1.3746  0.9016
    7SAPS   C28  849   2.478   1.993   6.756 -0.4347  0.4095 -0.4056
    7SAPS   H8R  850   2.480   2.063   6.841  2.0921 -0.4476  0.3292
    7SAPS   C29  851   2.484   2.035   6.632 -0.3064 -0.0099  0.0385
    7SAPS   H9R  852   2.535   2.132   6.622 -0.6668  0.1380 -0.4574
    7SAPS  C210  853   2.459   1.968   6.501  0.2539 -0.4979  0.4024
    7SAPS  H10R  854   2.532   1.886   6.483  2.7602  1.2929  1.7317
    7SAPS  H10S  855   2.489   2.038   6.421  0.5856 -0.9938  0.0867
    7SAPS  C211  856   2.309   1.935   6.483  0.3723  0.1226 -0.5313
    7SAPS  H11R  857   2.243   1.956   6.569  1.1149 -0.7507  0.2854
    7SAPS  C212  858   2.251   1.912   6.367  0.3712 -0.4848 -0.3228
    7SAPS  H12R  859   2.149   1.873   6.355  1.5092 -3.0447 -2.8893
    7SAPS  C213  860   2.323   1.895   6.239  0.8805  0.1449  0.1460
    7SAPS  H13R  861   2.414   1.836   6.265 -0.5453 -1.3801  1.9107
    7SAPS  H13S  862   2.360   1.992   6.199  0.4954  1.1816  2.2074
    7SAPS  C214  863   2.250   1.818   6.124 -0.4835 -0.0652 -0.3857
    7SAPS  H14R  864   2.295   1.724   6.090 -1.4188  0.4850 -3.4534
    7SAPS  C215  865   2.151   1.870   6.047  0.0014  0.7960 -0.5161
    7SAPS  H15R  866   2.099   1.794   5.988 -2.8339  1.9360  0.3773
    7SAPS  C216  867   2.093   2.007   6.052 -0.0333  0.3298  0.1861
    7SAPS  H16R  868   2.129   2.059   6.143  0.6442 -1.7150  1.1405
    7SAPS  H16S  869   1.986   1.994   6.076  0.3084 -0.7368  1.1974
    7SAPS  C217  870   2.125   2.090   5.920  0.4393 -0.6010  1.0027
    7SAPS  H17R  871   2.230   2.088   5.885  0.4193 -0.9369  0.9627
    7SAPS  H17S  872   2.099   2.191   5.960  2.2993  0.2984  0.0534
    7SAPS  C218  873   2.024   2.069   5.800 -0.2359 -0.2823 -0.3426
    7SAPS  H18R  874   1.959   2.159   5.804 -1.2004 -0.9886  0.4231
    7SAPS  H18S  875   1.952   1.990   5.830  0.9586 -0.7639  1.4422
    7SAPS  C219  876   2.090   2.040   5.664 -0.4581  0.4275  0.0941
    7SAPS  H19R  877   2.126   1.936   5.643  0.9822  0.5676  1.6047
    7SAPS  H19S  878   2.188   2.093   5.663  0.8465 -1.8012 -1.6399
    7SAPS  C220  879   2.002   2.086   5.554  0.4759 -0.0499 -0.6827
    7SAPS  H20R  880   1.906   2.030   5.553  1.1063 -1.2773  1.6580
    7SAPS  H20S  881   2.051   2.074   5.455  2.3040 -2.1897  0.3941
    7SAPS  H20T  882   1.962   2.189   5.568 -2.0996 -1.0818  0.0308
    7SAPS   C33  883   3.222   1.954   7.034  0.3712 -0.8100  0.8136
    7SAPS   H3X  884   3.198   2.044   6.973 -0.2059 -1.5184 -0.0337
    7SAPS   H3Y  885   3.144   1.944   7.112 -0.5289 -0.1068  0.0283
    7SAPS   C34  886   3.207   1.853   6.920 -0.3719 -0.1929  0.0960
    7SAPS   H4X  887   3.191   1.754   6.969  1.7557  0.3289  2.0303
    7SAPS   H4Y  888   3.307   1.846   6.873 -1.2045  1.1715 -2.0121
    7SAPS   C35  889   3.104   1.895   6.812  0.8867 -0.2859 -0.7922
    7SAPS   H5X  890   3.163   1.966   6.751  2.1219 -2.6680 -2.5190
    7SAPS   H5Y  891   3.019   1.951   6.857  1.7405  2.0702 -1.9453
    7SAPS   C36  892   3.062   1.775   6.727 -0.3344 -0.2204 -0.3203
    7SAPS   H6X  893   3.025   1.697   6.797 -0.0290  0.2201  0.3376
    7SAPS   H6Y  894   3.153   1.726   6.686 -0.5604 -0.8849 -0.0499
    7SAPS   C37  895   2.967   1.794   6.608  0.1090 -0.8049 -0.4893
    7SAPS   H7X  896   2.926   1.893   6.639  0.3950 -1.1522  1.0506
    7SAPS   H7Y  897   2.891   1.713   6.602 -0.6078 -0.2467  0.6478
    7SAPS   C38  898   3.047   1.797   6.475  0.4748 -0.3477  0.0225
    7SAPS   H8X  899   2.969   1.817   6.398  1.0777 -0.4460 -0.6240
    7SAPS   H8Y  900   3.100   1.704   6.446  3.0030  1.0918 -0.3314
    7SAPS   C39  901   3.154   1.901   6.472 -0.2941  0.1898 -0.2439
    7SAPS   H9X  902   3.240   1.859   6.529  1.7260  0.8002 -2.6182
    7SAPS   H9Y  903   3.119   1.997   6.515  0.4575  0.4538 -0.1961
    7SAPS  C310  904   3.214   1.926   6.330 -0.1726  0.6322  0.6001
    7SAPS  H10X  905   3.284   2.011   6.349  1.0130  0.7709 -3.4855
    7SAPS  H10Y  906   3.140   1.949   6.251  1.3370  1.5811 -0.6004
    7SAPS  C311  907   3.302   1.802   6.292  0.1841  0.5689  0.0921
    7SAPS  H11X  908   3.323   1.724   6.368  2.5075  1.0952  0.0725
    7SAPS  H11Y  909   3.402   1.838   6.258 -0.0086  0.3086 -0.7553
    7SAPS  C312  910   3.226   1.718   6.183  0.1473 -0.4489  0.4779
    7SAPS  H12X  911   3.117   1.706   6.204 -0.4846  1.8841 -1.0879
    7SAPS  H12Y  912   3.285   1.625   6.170  0.7228 -0.1217  0.7279
    7SAPS  C313  913   3.226   1.780   6.040 -0.0187 -0.1674  0.3736
    7SAPS  H13X  914   3.331   1.796   6.006  0.1281  0.6235  1.1477
    7SAPS  H13Y  915   3.184   1.883   6.049 -2.5087 -1.1718  1.0361
    7SAPS  C314  916   3.147   1.688   5.948  0.0629  0.0403  0.1062
    7SAPS  H14X  917   3.048   1.652   5.983  0.7248 -1.6018  0.3881
    7SAPS  H14Y  918   3.199   1.591   5.928 -0.7450 -0.3788  0.0170
    7SAPS  C315  919   3.137   1.747   5.809  0.6641 -0.1448  0.1655
    7SAPS  H15X  920   3.239   1.764   5.767 -0.0383  0.1498 -1.4793
    7SAPS  H15Y  921   3.099   1.851   5.816  1.3083  0.1238 -0.1673
    7SAPS  C316  922   3.067   1.657   5.717 -0.3034 -0.5345  0.8067
    7SAPS  H16X  923   2.958   1.649   5.735 -0.3543  0.3287  0.9194
    7SAPS  H16Y  924   3.112   1.556   5.734  0.6248  0.0459  1.9191
    7SAPS  C317  925   3.085   1.693   5.568  0.0368  0.6261 -0.0672
    7SAPS  H17X  926   3.192   1.707   5.539 -0.0647 -1.1473 -1.4751
    7SAPS  H17Y  927   3.025   1.785   5.553  1.2943  2.1100  3.0886
    7SAPS  C318  928   3.036   1.587   5.476  0.3839  0.0814  0.2604
    7SAPS  H18X  929   3.112   1.507   5.468  0.9581  0.7178 -0.8906
    7SAPS  H18Y  930   3.021   1.638   5.378  1.7246  2.4809  1.2056
    7SAPS  H18Z  931   2.938   1.548   5.511 -0.1272  2.1128  1.3065
    8SAPS     N  932   6.358   1.351   8.114 -0.1851 -0.2086  0.5438
    8SAPS   HN1  933   6.417   1.422   8.162 -0.0698  1.6012 -2.0421
    8SAPS   HN2  934   6.433   1.282   8.094 -0.0531 -0.2283  1.1016
    8SAPS   HN3  935   6.317   1.387   8.025 -0.3736  1.0864  1.1279
    8SAPS   C12  936   6.270   1.282   8.202  0.1300  0.0371 -0.4992
    8SAPS  H12A  937   6.324   1.265   8.294  0.7311  0.3461 -0.7888
    8SAPS   C13  938   6.150   1.367   8.237  0.1211 -0.5008 -0.1490
    8SAPS  O13A  939   6.108   1.454   8.162  0.0127 -0.2668 -0.1966
    8SAPS  O13B  940   6.104   1.354   8.356  0.0843 -0.0197 -0.4297
    8SAPS   C11  941   6.230   1.148   8.136 -0.5016  0.1323  0.4314
    8SAPS  H11A  942   6.174   1.173   8.043 -0.4111  0.2708  0.4128
    8SAPS  H11B  943   6.154   1.099   8.200  0.8854 -0.2071  1.8936
    8SAPS     P  944   6.322   0.926   8.024  0.3225  0.1659 -0.2951
    8SAPS   O13  945   6.456   0.874   7.982  0.1659 -0.2075  0.4411
    8SAPS   O14  946   6.228   0.837   8.102 -0.4662 -0.1023  0.1725
    8SAPS   O12  947   6.344   1.060   8.110  0.4723  0.1130 -0.3009
    8SAPS   O11  948   6.250   0.973   7.891 -0.8941  0.1293 -0.5535
    8SAPS    C1  949   6.209   0.879   7.792  0.6133  0.0349 -0.1079
    8SAPS    HA  950   6.277   0.791   7.783 -1.2890 -1.3445 -2.5255
    8SAPS    HB  951   6.112   0.830   7.813  0.1775 -0.0932 -2.1902
    8SAPS    C2  952   6.201   0.956   7.661  0.3804  0.6369  0.2290
    8SAPS    HS  953   6.294   1.015   7.646 -0.4216  2.1493  1.0002
    8SAPS   O21  954   6.084   1.038   7.654  0.3857 -0.5198 -0.0931
    8SAPS   C21  955   6.111   1.164   7.679 -0.0473  0.0740  0.2523
    8SAPS   O22  956   6.224   1.212   7.687 -0.2256 -0.0424  0.0255
    8SAPS   C22  957   5.983   1.241   7.717  0.4312 -0.4645  0.7112
    8SAPS   H2R  958   5.894   1.184   7.685  1.3111 -0.4405 -2.0174
    8SAPS   H2S  959   5.990   1.248   7.828  0.7384  0.4612  0.6455
    8SAPS    C3  960   6.201   0.852   7.552  0.0829 -0.3742 -0.3081
    8SAPS    HX  961   6.197   0.907   7.456 -2.4972 -0.8312 -0.5382
    8SAPS    HY  962   6.106   0.794   7.553  0.8004 -1.6075  1.2882
    8SAPS   O31  963   6.310   0.750   7.561  0.1008 -0.4981 -0.3907
    8SAPS   C31  964   6.416   0.770   7.489  0.3876 -0.4490  0.0967
    8SAPS   O32  965   6.450   0.878   7.440  0.6175  0.0659  0.2694
    8SAPS   C32  966   6.476   0.628   7.452 -0.2230 -0.3786 -0.6200
    8SAPS   H2X  967   6.388   0.561   7.461  0.0229 -0.7143 -0.6886
    8SAPS   H2Y  968   6.550   0.604   7.531 -0.3429  1.4560  0.1090
    8SAPS   C23  969   5.975   1.388   7.660  0.5664  0.4946 -0.6939
    8SAPS   H3R  970   6.068   1.446   7.677  1.8400 -1.5613 -0.3224
    8SAPS   H3S  971   5.892   1.437   7.715  0.9836  1.3821 -0.8396
    8SAPS   C24  972   5.934   1.396   7.515  0.1051  0.8331 -0.1025
    8SAPS   H4R  973   5.912   1.498   7.478  0.5973  0.3158 -1.9685
    8SAPS   H4S  974   5.845   1.331   7.503 -1.1062  2.0910  1.6533
    8SAPS   C25  975   6.053   1.356   7.432  0.5213 -0.0636  0.1836
    8SAPS   H5R  976   6.153   1.394   7.458  0.1600  1.8798 -1.0788
    8SAPS   C26  977   6.049   1.261   7.335  0.5024 -0.6134  0.8451
    8SAPS   H6R  978   6.146   1.243   7.286 -0.0975 -1.1430 -0.1757
    8SAPS   C27  979   5.931   1.177   7.285 -0.3548 -0.0795  0.2051
    8SAPS   H7R  980   5.894   1.200   7.183 -0.9445 -0.3164  0.3663
    8SAPS   H7S  981   5.839   1.184   7.346 -1.1572  2.9194 -1.1530
    8SAPS   C28  982   5.975   1.034   7.300  0.6005  0.6559  0.3884
    8SAPS   H8R  983   5.954   0.996   7.401 -1.2514  0.0210 -0.1905
    8SAPS   C29  984   6.018   0.952   7.200  0.8068 -0.1830 -0.2405
    8SAPS   H9R  985   6.047   0.851   7.232  1.8073 -0.4895 -1.9856
    8SAPS  C210  986   6.061   0.997   7.060 -0.6644  0.1763 -0.4875
    8SAPS  H10R  987   6.075   1.107   7.058  0.8556  0.1785  2.9664
    8SAPS  H10S  988   5.980   0.980   6.986 -1.4970  3.0789 -0.3664
    8SAPS  C211  989   6.193   0.933   7.029 -0.3148  0.6451  0.3889
    8SAPS  H11R  990   6.251   0.888   7.110  2.5477 -1.2620 -2.4549
    8SAPS  C212  991   6.251   0.924   6.906 -0.0008 -0.4830  1.0175
    8SAPS  H12R  992   6.352   0.881   6.899 -0.1466 -0.7043  0.2389
    8SAPS  C213  993   6.191   0.960   6.775  0.0773 -0.3370  0.1025
    8SAPS  H13R  994   6.099   1.018   6.799 -1.7583 -1.8016 -2.8395
    8SAPS  H13S  995   6.164   0.869   6.718 -0.1936  0.0948 -0.4707
    8SAPS  C214  996   6.279   1.042   6.685 -0.6402  0.4969 -0.0865
    8SAPS  H14R  997   6.354   1.103   6.738 -0.6261  0.4363 -0.0366
    8SAPS  C215  998   6.304   1.030   6.555  0.2801  0.0619  0.2966
    8SAPS  H15R  999   6.366   1.105   6.502  1.3110  0.2627  1.7443
    8SAPS  C216 1000   6.227   0.935   6.463 -0.3741 -0.5522  0.0164
    8SAPS  H16R 1001   6.185   0.849   6.520 -0.5242 -1.0073 -0.7662
    8SAPS  H16S 1002   6.309   0.884   6.407 -0.4974  0.0160 -0.6904
    8SAPS  C217 1003   6.127   1.008   6.376  0.1913 -0.1878 -0.8220
    8SAPS  H17R 1004   6.180   1.091   6.324  0.3109  1.1987  1.3604
    8SAPS  H17S 1005   6.070   1.080   6.439  3.0993 -0.6810  2.7373
    8SAPS  C218 1006   6.052   0.918   6.282  0.0941 -0.2756 -0.0591
    8SAPS  H18R 1007   5.954   0.962   6.252  1.6328  1.9838 -2.1388
    8SAPS  H18S 1008   6.035   0.827   6.343  1.9098 -0.2126  0.5941
    8SAPS  C219 1009   6.135   0.874   6.166 -0.8313  0.7510 -0.4322
    8SAPS  H19R 1010   6.226   0.822   6.204 -0.7081 -0.0557 -1.7709
    8SAPS  H19S 1011   6.172   0.962   6.110  0.9531  0.7399  0.6588
    8SAPS  C220 1012   6.063   0.781   6.072  0.1582 -0.1259 -0.1002
    8SAPS  H20R 1013   5.989   0.834   6.008 -2.8989 -2.6041  1.1177
    8SAPS  H20S 1014   6.001   0.708   6.127 -0.4909  0.4549 -0.0424
    8SAPS  H20T 1015   6.141   0.739   6.005  0.3886  0.2692 -0.0857
    8SAPS   C33 1016   6.549   0.622   7.318  0.6851  0.4817  0.0667
    8SAPS   H3X 1017   6.595   0.521   7.307 -1.4103 -0.6987  1.4016
    8SAPS   H3Y 1018   6.637   0.688   7.323  1.9849 -1.2090  0.4839
    8SAPS   C34 1019   6.458   0.645   7.193  0.1596  0.0798 -0.4167
    8SAPS   H4X 1020   6.396   0.736   7.211 -1.3631 -1.1578  0.8706
    8SAPS   H4Y 1021   6.394   0.556   7.178 -0.0614  0.3995 -1.4267
    8SAPS   C35 1022   6.536   0.672   7.061  0.2718 -0.0800 -0.2185
    8SAPS   H5X 1023   6.469   0.663   6.973  2.0594  1.2744 -1.7893
    8SAPS   H5Y 1024   6.607   0.589   7.045  0.9265  0.4235  0.0412
    8SAPS   C36 1025   6.607   0.803   7.048  0.0404  0.3349  0.6950
    8SAPS   H6X 1026   6.675   0.825   7.133 -0.1669 -3.0605  1.8937
    8SAPS   H6Y 1027   6.537   0.889   7.044 -0.8965 -0.4401  0.1879
    8SAPS   C37 1028   6.709   0.820   6.931 -0.5978 -0.0351  0.0195
    8SAPS   H7X 1029   6.800   0.757   6.933  0.7522  1.8099  2.4717
    8SAPS   H7Y 1030   6.757   0.918   6.954  3.8296 -2.0989  0.5878
    8SAPS   C38 1031   6.639   0.806   6.794  0.4078  0.3196  0.2406
    8SAPS   H8X 1032   6.546   0.866   6.798 -0.3707 -0.7227 -1.4407
    8SAPS   H8Y 1033   6.601   0.701   6.795  0.4109  0.3206  0.8603
    8SAPS   C39 1034   6.729   0.852   6.680  0.1550  0.4590 -0.3381
    8SAPS   H9X 1035   6.828   0.802   6.683  0.0097  0.2257  1.1553
    8SAPS   H9Y 1036   6.739   0.962   6.696 -1.4081  0.4069  1.1955
    8SAPS  C310 1037   6.669   0.833   6.534 -0.3071 -0.6031 -0.1534
    8SAPS  H10X 1038   6.573   0.888   6.536 -0.0957 -0.1738 -1.1149
    8SAPS  H10Y 1039   6.652   0.732   6.492  0.9880  0.4943 -3.6392
    8SAPS  C311 1040   6.769   0.897   6.436  0.0707 -0.3643 -0.3135
    8SAPS  H11X 1041   6.865   0.842   6.443 -0.8837 -1.9272  1.5271
    8SAPS  H11Y 1042   6.795   1.001   6.466 -1.1202 -0.0419 -0.3156
    8SAPS  C312 1043   6.716   0.899   6.287 -0.1518  0.1589 -0.3253
    8SAPS  H12X 1044   6.713   0.794   6.249  0.0198 -0.1907  0.6055
    8SAPS  H12Y 1045   6.800   0.949   6.233  0.7820  1.4973  2.2174
    8SAPS  C313 1046   6.591   0.977   6.253  0.2435 -0.2698 -0.2408
    8SAPS  H13X 1047   6.600   1.070   6.313 -1.8754 -0.7454  0.9219
    8SAPS  H13Y 1048   6.497   0.930   6.288 -0.3960  2.3133  1.8477
    8SAPS  C314 1049   6.590   1.020   6.101  0.0322  0.0915 -0.3808
    8SAPS  H14X 1050   6.616   0.941   6.028 -0.3807  1.4660 -2.0905
    8SAPS  H14Y 1051   6.672   1.095   6.091  0.1127 -0.2898 -3.5683
    8SAPS  C315 1052   6.463   1.094   6.062 -0.3577  0.3428 -0.6366
    8SAPS  H15X 1053   6.453   1.177   6.136  0.2017  0.8503 -1.1193
    8SAPS  H15Y 1054   6.387   1.015   6.080  0.4846 -0.3259  0.0912
    8SAPS  C316 1055   6.475   1.151   5.922  0.4774 -0.2204 -0.0959
    8SAPS  H16X 1056   6.531   1.072   5.867 -0.8396 -1.6323  0.5038
    8SAPS  H16Y 1057   6.547   1.235   5.930  0.4836 -0.3609  1.6207
    8SAPS  C317 1058   6.348   1.198   5.846 -0.5657  0.5566  0.5634
    8SAPS  H17X 1059   6.290   1.109   5.814  2.5462 -1.2402 -0.5092
    8SAPS  H17Y 1060   6.381   1.244   5.750 -0.1947  0.2140  0.5220
    8SAPS  C318 1061   6.256   1.302   5.915  0.0983  0.6591  0.3215
    8SAPS  H18X 1062   6.216   1.266   6.013 -0.0031 -0.3664 -0.0820
    8SAPS  H18Y 1063   6.174   1.345   5.854 -1.5354  0.5351  2.3206
    8SAPS  H18Z 1064   6.329   1.376   5.953  0.2104  0.2493  0.9300
    9SAPS     N 1065   5.531   6.035   8.099  0.3976  0.0349  0.1690
    9SAPS   HN1 1066   5.633   6.015   8.106  0.5398  1.0116  1.4185
    9SAPS   HN2 1067   5.480   5.951   8.067  0.2444 -0.0749  0.6870
    9SAPS   HN3 1068   5.524   6.112   8.029  2.4851  0.4944  0.3764
    9SAPS   C12 1069   5.485   6.072   8.234  0.2730  0.4752 -0.0879
    9SAPS  H12A 1070   5.506   5.982   8.290  1.2105 -2.1927 -4.3003
    9SAPS   C13 1071   5.547   6.202   8.292 -0.1910  0.6959  0.5728
    9SAPS  O13A 1072   5.636   6.262   8.231  0.3858  0.5170 -0.1755
    9SAPS  O13B 1073   5.507   6.233   8.406 -0.0944 -0.1148  0.1723
    9SAPS   C11 1074   5.337   6.110   8.219 -0.0034 -0.1013  0.1382
    9SAPS  H11A 1075   5.331   6.194   8.147  0.6738  0.7971  1.1049
    9SAPS  H11B 1076   5.298   6.153   8.314 -1.4023 -1.0065  0.0087
    9SAPS     P 1077   5.103   5.993   8.177 -0.5760  0.3924 -0.4548
    9SAPS   O13 1078   5.066   5.870   8.242  0.5247 -0.4911 -0.1379
    9SAPS   O14 1079   5.048   6.112   8.229  0.5609  0.5098  0.4731
    9SAPS   O12 1080   5.257   5.996   8.181 -0.5073  0.0728  0.1292
    9SAPS   O11 1081   5.073   5.979   8.025 -0.2080  0.2712  0.3201
    9SAPS    C1 1082   4.935   5.955   7.976 -0.2522  0.2505 -0.1780
    9SAPS    HA 1083   4.923   5.849   7.947 -1.5907 -0.0583  1.3664
    9SAPS    HB 1084   4.860   5.965   8.057 -0.1398 -1.0951  0.1112
    9SAPS    C2 1085   4.895   6.035   7.848  0.4196  0.5356 -0.7222
    9SAPS    HS 1086   4.787   6.059   7.863  0.5217  0.4679  0.1694
    9SAPS   O21 1087   4.933   5.966   7.736 -1.0008 -0.6144  0.4975
    9SAPS   C21 1088   4.836   5.925   7.659 -0.2358 -0.0992 -0.1148
    9SAPS   O22 1089   4.717   5.938   7.681  0.2848 -0.0155 -0.3046
    9SAPS   C22 1090   4.887   5.848   7.534  0.5043  0.1311  0.0554
    9SAPS   H2R 1091   4.990   5.807   7.546  0.4477  0.1372  0.5627
    9SAPS   H2S 1092   4.824   5.757   7.524 -2.6973  2.2069 -0.1117
    9SAPS    C3 1093   4.962   6.172   7.847 -0.3234 -0.0979  0.0156
    9SAPS    HX 1094   5.070   6.154   7.831 -0.7981 -0.8552 -2.7921
    9SAPS    HY 1095   4.953   6.214   7.950  1.5160 -1.9135  0.9917
    9SAPS   O31 1096   4.904   6.271   7.754 -0.3014 -0.0514 -0.9493
    9SAPS   C31 1097   4.967   6.277   7.641  0.5170 -0.5648  0.7032
    9SAPS   O32 1098   5.070   6.217   7.613 -0.0467  0.5224  0.1845
    9SAPS   C32 1099   4.876   6.350   7.538  0.2160 -0.1494  0.1762
    9SAPS   H2X 1100   4.870   6.460   7.557  0.5774 -0.0964 -0.0078
    9SAPS   H2Y 1101   4.773   6.309   7.534  0.0894  0.2082 -0.2974
    9SAPS   C23 1102   4.887   5.924   7.401 -0.3966 -0.5634  0.7840
    9SAPS   H3R 1103   4.930   5.864   7.318  1.3322  1.2476  0.3084
    9SAPS   H3S 1104   4.951   6.014   7.407 -2.1992  0.7165  2.4809
    9SAPS   C24 1105   4.749   5.980   7.355  0.4437  0.0019 -0.9017
    9SAPS   H4R 1106   4.754   6.048   7.267  0.7372  0.6904 -0.3561
    9SAPS   H4S 1107   4.713   6.046   7.436 -1.8792 -0.0501 -1.8045
    9SAPS   C25 1108   4.646   5.872   7.330 -0.6661 -0.1590 -0.0366
    9SAPS   H5R 1109   4.586   5.836   7.416  0.2881 -0.8940  0.3353
    9SAPS   C26 1110   4.608   5.812   7.217  0.4427 -0.2261 -0.0923
    9SAPS   H6R 1111   4.521   5.746   7.207  0.0418  0.2575  0.1441
    9SAPS   C27 1112   4.677   5.848   7.091 -0.2610  0.4294 -0.8069
    9SAPS   H7R 1113   4.780   5.808   7.095 -0.8237 -1.0330 -0.0153
    9SAPS   H7S 1114   4.696   5.957   7.083  1.5409  0.4717  2.2782
    9SAPS   C28 1115   4.634   5.807   6.955  0.7758 -0.1318 -0.6285
    9SAPS   H8R 1116   4.525   5.802   6.942  0.8080  2.0258 -2.4018
    9SAPS   C29 1117   4.698   5.793   6.839  0.0221  0.1936  0.4328
    9SAPS   H9R 1118   4.644   5.753   6.752  1.0995 -0.3764  0.0109
    9SAPS  C210 1119   4.841   5.801   6.811  0.0078  0.1019  0.1380
    9SAPS  H10R 1120   4.875   5.718   6.746  0.8017 -0.1872  0.8872
    9SAPS  H10S 1121   4.901   5.787   6.904 -1.1535 -3.8949  0.4852
    9SAPS  C211 1122   4.860   5.937   6.734 -0.6254  0.5098 -0.0826
    9SAPS  H11R 1123   4.779   6.010   6.751 -1.2083 -0.2420  0.4165
    9SAPS  C212 1124   4.957   5.961   6.646  0.2358  0.0375  0.2306
    9SAPS  H12R 1125   4.968   6.060   6.598 -1.6662  0.3679  0.3821
    9SAPS  C213 1126   5.061   5.856   6.603  0.4238 -0.1309  0.2238
    9SAPS  H13R 1127   5.012   5.793   6.525 -1.3272  0.0115  1.1608
    9SAPS  H13S 1128   5.076   5.781   6.683 -1.7067 -2.0566 -1.0850
    9SAPS  C214 1129   5.196   5.908   6.542  0.2035 -0.6709  0.0550
    9SAPS  H14R 1130   5.255   5.963   6.616  1.2850 -0.6811 -0.7588
    9SAPS  C215 1131   5.235   5.903   6.413 -0.4410  0.4846 -0.2437
    9SAPS  H15R 1132   5.337   5.935   6.387 -1.3127  2.1794 -1.8194
    9SAPS  C216 1133   5.162   5.846   6.292  0.3651  0.2664  0.1518
    9SAPS  H16R 1134   5.079   5.912   6.259  1.6147  0.7090 -2.3091
    9SAPS  H16S 1135   5.115   5.747   6.315  0.0612  0.2302 -0.5998
    9SAPS  C217 1136   5.254   5.829   6.174  0.3412  0.2809 -0.1393
    9SAPS  H17R 1137   5.310   5.921   6.146  2.2409 -0.8909 -0.3760
    9SAPS  H17S 1138   5.182   5.819   6.089  0.5646  1.1982 -0.4457
    9SAPS  C218 1139   5.349   5.717   6.185  0.0288  0.4306  0.3236
    9SAPS  H18R 1140   5.296   5.619   6.193  3.9020 -2.0377 -1.0116
    9SAPS  H18S 1141   5.404   5.719   6.282 -1.1697 -2.4699  1.1706
    9SAPS  C219 1142   5.430   5.705   6.058  0.6092  0.3099  0.0186
    9SAPS  H19R 1143   5.506   5.624   6.063  0.5435  0.2084 -0.5107
    9SAPS  H19S 1144   5.475   5.804   6.037  0.2102  0.0292 -2.3984
    9SAPS  C220 1145   5.343   5.673   5.939 -0.4991  0.2266 -0.2397
    9SAPS  H20R 1146   5.398   5.661   5.843 -1.3220  0.1772 -0.7194
    9SAPS  H20S 1147   5.270   5.755   5.920 -0.6697  0.1249 -0.0360
    9SAPS  H20T 1148   5.282   5.581   5.955 -1.8625  0.7764 -1.8892
    9SAPS   C33 1149   4.922   6.340   7.394 -0.2541  0.6089 -0.8058
    9SAPS   H3X 1150   4.903   6.238   7.354  0.8954  0.6644 -1.5313
    9SAPS   H3Y 1151   5.031   6.360   7.391 -0.2123  0.6981  0.5081
    9SAPS   C34 1152   4.846   6.445   7.302 -0.1396 -0.4017 -0.5389
    9SAPS   H4X 1153   4.891   6.544   7.325 -0.7709 -0.5854  1.6933
    9SAPS   H4Y 1154   4.737   6.444   7.322  0.0180  1.8179  0.7917
    9SAPS   C35 1155   4.882   6.426   7.161  0.3489  0.2932 -0.0345
    9SAPS   H5X 1156   4.888   6.317   7.141 -0.7379 -0.0117  1.2000
    9SAPS   H5Y 1157   4.982   6.471   7.144  0.8082 -0.3458  0.8730
    9SAPS   C36 1158   4.784   6.492   7.058 -0.1738  0.6490  0.4143
    9SAPS   H6X 1159   4.781   6.586   7.116  4.4740 -0.2441  2.5534
    9SAPS   H6Y 1160   4.685   6.442   7.056 -0.7785  1.7292  1.7770
    9SAPS   C37 1161   4.849   6.501   6.922  0.3065  0.1042  0.1855
    9SAPS   H7X 1162   4.851   6.392   6.899  1.0496  0.0973  0.2678
    9SAPS   H7Y 1163   4.948   6.548   6.941  0.0694 -0.0969  2.0987
    9SAPS   C38 1164   4.768   6.578   6.812 -0.5165 -0.5838  0.1760
    9SAPS   H8X 1165   4.756   6.681   6.851 -2.4958 -0.6839 -0.0729
    9SAPS   H8Y 1166   4.670   6.527   6.798 -0.3692 -0.6825 -0.5538
    9SAPS   C39 1167   4.836   6.579   6.674 -0.2017  0.8992  0.2845
    9SAPS   H9X 1168   4.817   6.477   6.635  1.9701  0.5923 -0.1035
    9SAPS   H9Y 1169   4.946   6.578   6.687 -0.3178 -0.3240  1.3954
    9SAPS  C310 1170   4.784   6.682   6.582 -0.2172  0.0397 -0.4264
    9SAPS  H10X 1171   4.820   6.783   6.610 -2.2752  0.8151 -0.3940
    9SAPS  H10Y 1172   4.673   6.694   6.585 -0.1391  0.5712  1.1019
    9SAPS  C311 1173   4.813   6.640   6.439  0.5657 -0.1769 -0.1917
    9SAPS  H11X 1174   4.743   6.556   6.418  2.2427 -1.3431 -1.3783
    9SAPS  H11Y 1175   4.909   6.585   6.434  0.8007 -0.2608  3.1106
    9SAPS  C312 1176   4.802   6.756   6.341 -0.4261 -0.7736  0.3852
    9SAPS  H12X 1177   4.861   6.842   6.379  1.3687 -1.4429 -0.7433
    9SAPS  H12Y 1178   4.693   6.779   6.342 -0.2914 -0.0842 -0.2038
    9SAPS  C313 1179   4.843   6.724   6.190 -0.1485  0.1314 -0.0945
    9SAPS  H13X 1180   4.820   6.616   6.184  2.9628 -0.5868 -0.8974
    9SAPS  H13Y 1181   4.954   6.727   6.188 -0.1283 -0.4284  0.1376
    9SAPS  C314 1182   4.772   6.800   6.082  0.2770 -0.1843  0.8191
    9SAPS  H14X 1183   4.776   6.910   6.095  0.0910  0.3878 -2.9238
    9SAPS  H14Y 1184   4.666   6.765   6.081 -0.0864  0.8587  1.3906
    9SAPS  C315 1185   4.814   6.757   5.938 -0.2889  0.1082 -0.3070
    9SAPS  H15X 1186   4.729   6.778   5.870  0.4508  1.9057 -0.7572
    9SAPS  H15Y 1187   4.836   6.649   5.924  5.3529  1.0525 -1.1525
    9SAPS  C316 1188   4.939   6.827   5.889 -0.8842 -0.4711 -0.0753
    9SAPS  H16X 1189   5.031   6.810   5.950  1.5975 -0.1254 -3.4223
    9SAPS  H16Y 1190   4.917   6.936   5.887 -3.0937 -0.8847 -1.4621
    9SAPS  C317 1191   4.968   6.803   5.740  0.2080  0.7408  0.0781
    9SAPS  H17X 1192   5.016   6.704   5.724 -2.2689 -0.4906 -0.1718
    9SAPS  H17Y 1193   5.043   6.882   5.718 -1.5182  2.5225  0.2935
    9SAPS  C318 1194   4.860   6.811   5.632  0.4085 -0.4174 -1.0674
    9SAPS  H18X 1195   4.900   6.832   5.530  1.9463  2.2920 -0.0046
    9SAPS  H18Y 1196   4.789   6.889   5.667  1.7362  0.0687  0.6645
    9SAPS  H18Z 1197   4.811   6.712   5.621 -0.5649 -0.4182  2.3666
   10SAPS     N 1198   6.697   4.521   7.651 -0.4990  0.9130 -0.4658
   10SAPS   HN1 1199   6.780   4.492   7.596 -1.1149 -2.0286 -0.0083
   10SAPS   HN2 1200   6.728   4.573   7.736  1.2339  2.6996 -2.0945
   10SAPS   HN3 1201   6.647   4.430   7.656  0.1550  0.4952 -1.3627
   10SAPS   C12 1202   6.603   4.606   7.571 -0.3423  0.3896 -0.3620
   10SAPS  H12A 1203   6.596   4.568   7.470  1.4794  0.6690 -0.6415
   10SAPS   C13 1204   6.464   4.629   7.634  0.9130 -0.1450  0.1926
   10SAPS  O13A 1205   6.426   4.555   7.726  0.1851 -0.4721 -0.0816
   10SAPS  O13B 1206   6.375   4.704   7.582 -0.1138 -0.1762 -0.1053
   10SAPS   C11 1207   6.668   4.748   7.554  0.0809 -0.2281 -0.3239
   10SAPS  H11A 1208   6.663   4.803   7.650  3.4195  0.1829 -0.2419
   10SAPS  H11B 1209   6.610   4.814   7.486  1.3555  0.1969 -1.0348
   10SAPS     P 1210   6.900   4.871   7.514  0.4593 -0.3372 -0.5334
   10SAPS   O13 1211   6.939   4.877   7.661  0.6577 -0.2058  0.1443
   10SAPS   O14 1212   7.005   4.866   7.415  0.0409  0.2798 -0.6467
   10SAPS   O12 1213   6.800   4.744   7.500 -0.3483 -0.2256  0.3012
   10SAPS   O11 1214   6.809   5.001   7.470 -0.2660  0.3011 -0.2174
   10SAPS    C1 1215   6.881   5.122   7.466 -0.1057 -0.3113  0.6954
   10SAPS    HA 1216   6.842   5.184   7.550 -0.3610 -1.1393  1.1942
   10SAPS    HB 1217   6.988   5.111   7.493 -0.5217  1.2231  3.2724
   10SAPS    C2 1218   6.873   5.188   7.324  0.3280  0.0701  0.2634
   10SAPS    HS 1219   6.774   5.239   7.317  0.1748 -0.4291 -3.6544
   10SAPS   O21 1220   6.883   5.084   7.218  0.2641  0.2652  0.0985
   10SAPS   C21 1221   6.760   5.035   7.188  0.2805  0.1957 -0.3333
   10SAPS   O22 1222   6.652   5.081   7.220  0.0420 -0.0289  0.1949
   10SAPS   C22 1223   6.776   4.920   7.089  0.3638  0.2299  0.5993
   10SAPS   H2R 1224   6.867   4.939   7.027  1.3778 -1.7392  1.4056
   10SAPS   H2S 1225   6.792   4.832   7.155 -0.2588  1.3775  2.3389
   10SAPS    C3 1226   6.984   5.287   7.304  0.9936  0.8743  0.1509
   10SAPS    HX 1227   7.084   5.245   7.327  0.8051  0.4969  0.2979
   10SAPS    HY 1228   6.982   5.364   7.384  0.0489 -0.3397  1.3464
   10SAPS   O31 1229   6.978   5.348   7.174  0.0124 -0.0920 -0.6188
   10SAPS   C31 1230   7.047   5.294   7.075  0.7657 -0.8738  0.0847
   10SAPS   O32 1231   7.119   5.199   7.082  0.3366 -0.0005 -1.2983
   10SAPS   C32 1232   7.028   5.370   6.945  0.4536 -0.0181 -0.4740
   10SAPS   H2X 1233   7.122   5.428   6.934  0.7780 -0.5134 -0.3298
   10SAPS   H2Y 1234   6.938   5.435   6.956  0.8150  0.6329 -1.2538
   10SAPS   C23 1235   6.652   4.907   6.990  0.3218 -0.0430 -0.2394
   10SAPS   H3R 1236   6.555   4.917   7.042  1.9398  2.4209  2.6646
   10SAPS   H3S 1237   6.656   4.803   6.951  0.3265 -0.3644  0.5819
   10SAPS   C24 1238   6.650   5.014   6.880  0.0229  0.7462 -0.1969
   10SAPS   H4R 1239   6.728   4.979   6.809  0.4054 -1.0298  1.0354
   10SAPS   H4S 1240   6.697   5.100   6.933  4.5254  0.3285 -2.9794
   10SAPS   C25 1241   6.522   5.025   6.807  0.3498 -0.2617  0.1506
   10SAPS   H5R 1242   6.432   4.976   6.845 -1.1803  0.9146 -1.7753
   10SAPS   C26 1243   6.507   5.098   6.696  0.1883  0.2316  0.3104
   10SAPS   H6R 1244   6.409   5.104   6.646  0.1384 -0.7068  0.2698
   10SAPS   C27 1245   6.617   5.173   6.620 -0.1109 -0.6186 -0.5883
   10SAPS   H7R 1246   6.709   5.186   6.681 -0.6541  0.7203 -0.0354
   10SAPS   H7S 1247   6.585   5.276   6.593  1.2458  0.3832  1.4036
   10SAPS   C28 1248   6.656   5.111   6.489 -0.6956 -0.1378 -0.7020
   10SAPS   H8R 1249   6.743   5.044   6.495 -1.6672 -1.3843  0.2978
   10SAPS   C29 1250   6.591   5.116   6.378 -0.2867  0.4992  0.6571
   10SAPS   H9R 1251   6.633   5.060   6.293 -0.8185  1.2472 -0.1155
   10SAPS  C210 1252   6.466   5.194   6.350 -0.1958 -0.0168  0.2691
   10SAPS  H10R 1253   6.490   5.290   6.299  2.3701 -0.6036  0.2065
   10SAPS  H10S 1254   6.415   5.214   6.446 -0.0508 -0.6113  0.4787
   10SAPS  C211 1255   6.373   5.106   6.266 -0.1373  0.0067  0.3211
   10SAPS  H11R 1256   6.308   5.040   6.326  2.6379 -3.1308  0.1895
   10SAPS  C212 1257   6.371   5.117   6.126 -0.4874  0.6117 -0.4658
   10SAPS  H12R 1258   6.303   5.047   6.076  2.0805 -2.2475 -0.1954
   10SAPS  C213 1259   6.442   5.207   6.025 -0.2294  0.3028 -0.7614
   10SAPS  H13R 1260   6.472   5.305   6.068 -0.5595 -1.3140  3.6036
   10SAPS  H13S 1261   6.374   5.234   5.941  0.1116  0.1526 -1.0894
   10SAPS  C214 1262   6.573   5.139   5.982  0.4430  0.0473  0.1479
   10SAPS  H14R 1263   6.648   5.108   6.056  1.5646 -0.5634 -1.1955
   10SAPS  C215 1264   6.610   5.126   5.851 -0.2679 -0.3167 -0.9483
   10SAPS  H15R 1265   6.707   5.078   5.829  0.1014 -0.9937  1.7405
   10SAPS  C216 1266   6.519   5.164   5.732 -1.6240  0.0570  0.1131
   10SAPS  H16R 1267   6.588   5.210   5.659  1.3477 -0.5481  2.3227
   10SAPS  H16S 1268   6.440   5.240   5.749 -1.8328 -0.0576 -0.3370
   10SAPS  C217 1269   6.431   5.042   5.695 -0.5467 -0.8998  0.4657
   10SAPS  H17R 1270   6.368   5.017   5.783 -1.9368 -1.0669 -0.5357
   10SAPS  H17S 1271   6.488   4.950   5.666 -3.2611 -2.7875  0.7598
   10SAPS  C218 1272   6.322   5.072   5.586 -0.2074  0.7881  0.2462
   10SAPS  H18R 1273   6.248   5.144   5.627 -0.2076  0.9283  0.0024
   10SAPS  H18S 1274   6.275   4.974   5.564 -0.3438  0.2718  2.6070
   10SAPS  C219 1275   6.378   5.117   5.451 -0.2156 -0.6657 -0.3249
   10SAPS  H19R 1276   6.450   5.040   5.415 -0.1587 -0.3402 -0.9292
   10SAPS  H19S 1277   6.444   5.206   5.456 -2.0355  0.6764  1.5361
   10SAPS  C220 1278   6.267   5.150   5.355  0.5240  0.2865  0.5231
   10SAPS  H20R 1279   6.201   5.061   5.342  0.0481  0.7247 -0.1651
   10SAPS  H20S 1280   6.304   5.167   5.251  0.2412 -3.0992 -0.2459
   10SAPS  H20T 1281   6.216   5.242   5.391 -0.3092 -0.0163  0.1606
   10SAPS   C33 1282   7.013   5.276   6.819  0.9894  0.5744 -0.4421
   10SAPS   H3X 1283   6.912   5.231   6.823  1.0888  0.4402  1.2488
   10SAPS   H3Y 1284   7.087   5.194   6.825 -1.0338 -1.4136 -1.4054
   10SAPS   C34 1285   7.033   5.349   6.691 -0.3605 -0.4732  0.6615
   10SAPS   H4X 1286   7.055   5.273   6.613  3.4179  2.2400 -1.2341
   10SAPS   H4Y 1287   7.123   5.415   6.685 -0.2732 -0.6951 -2.8572
   10SAPS   C35 1288   6.922   5.452   6.654  0.3209  0.2786 -0.4911
   10SAPS   H5X 1289   6.918   5.537   6.726 -0.8398  0.0081 -0.2068
   10SAPS   H5Y 1290   6.823   5.402   6.662  1.4674 -1.9696  0.5847
   10SAPS   C36 1291   6.934   5.515   6.522 -0.0368  0.0833  0.3355
   10SAPS   H6X 1292   7.033   5.565   6.511 -0.3180  0.4042 -0.8032
   10SAPS   H6Y 1293   6.856   5.593   6.516 -0.1556 -0.0618 -0.0148
   10SAPS   C37 1294   6.922   5.421   6.398  0.2853  0.4394  0.3830
   10SAPS   H7X 1295   6.826   5.364   6.396 -0.3231  1.4243 -1.9194
   10SAPS   H7Y 1296   7.002   5.344   6.396 -0.1878 -0.0735  0.8317
   10SAPS   C38 1297   6.934   5.504   6.269 -0.4251 -0.1803 -0.9100
   10SAPS   H8X 1298   7.032   5.556   6.254 -0.8035  0.4850 -1.1571
   10SAPS   H8Y 1299   6.856   5.583   6.272 -1.4286 -1.1108 -1.6843
   10SAPS   C39 1300   6.907   5.425   6.141  0.3177  0.4355  0.1343
   10SAPS   H9X 1301   6.801   5.392   6.149 -0.0695  1.6717  0.3631
   10SAPS   H9Y 1302   6.960   5.328   6.144  2.4616  1.5350 -0.0688
   10SAPS  C310 1303   6.918   5.514   6.009 -0.5051  0.2619  0.2069
   10SAPS  H10X 1304   7.023   5.550   6.011 -0.3480 -0.1525  2.2900
   10SAPS  H10Y 1305   6.854   5.605   6.009 -1.4874 -0.3827 -1.8643
   10SAPS  C311 1306   6.865   5.444   5.887  0.3674 -0.2424  0.3395
   10SAPS  H11X 1307   6.755   5.441   5.869  0.5697 -0.8443 -0.8415
   10SAPS  H11Y 1308   6.896   5.337   5.884  3.0364  0.2489  3.7843
   10SAPS  C312 1309   6.913   5.506   5.754 -0.3482  0.6577 -0.4937
   10SAPS  H12X 1310   7.023   5.490   5.752 -0.3803 -1.0398  3.0910
   10SAPS  H12Y 1311   6.894   5.615   5.758 -2.8783  0.2394  1.3790
   10SAPS  C313 1312   6.845   5.461   5.630 -0.2314 -0.1123  0.1694
   10SAPS  H13X 1313   6.736   5.483   5.621 -0.0938  0.2239 -0.7744
   10SAPS  H13Y 1314   6.843   5.350   5.635 -2.1576 -0.0600  1.4766
   10SAPS  C314 1315   6.914   5.521   5.505  0.0144  0.4559  0.9125
   10SAPS  H14X 1316   6.872   5.470   5.416 -1.4997  0.5401  1.5487
   10SAPS  H14Y 1317   7.019   5.486   5.517 -0.3497 -2.8000 -3.3250
   10SAPS  C315 1318   6.884   5.669   5.475 -0.3400  1.2798 -0.0433
   10SAPS  H15X 1319   6.944   5.731   5.545  1.1638 -1.7873  1.5683
   10SAPS  H15Y 1320   6.775   5.681   5.492 -0.8766  0.2495 -2.3127
   10SAPS  C316 1321   6.915   5.710   5.332 -0.3173 -0.3600  0.0815
   10SAPS  H16X 1322   6.852   5.653   5.261 -0.1481  0.6889 -0.9404
   10SAPS  H16Y 1323   7.018   5.676   5.309  1.1077  1.4402  3.0980
   10SAPS  C317 1324   6.900   5.861   5.304 -0.4075  0.0769  0.3223
   10SAPS  H17X 1325   6.962   5.878   5.213  1.5249 -0.8244  1.4193
   10SAPS  H17Y 1326   6.948   5.919   5.385 -0.7391 -0.5921  1.0002
   10SAPS  C318 1327   6.751   5.903   5.303  0.1597 -0.4484  0.3848
   10SAPS  H18X 1328   6.736   6.012   5.289  0.9641 -0.4924 -0.9963
   10SAPS  H18Y 1329   6.720   5.874   5.406  0.1089 -0.3619  0.3935
   10SAPS  H18Z 1330   6.682   5.843   5.240 -1.5473  0.4733  1.3091
   11SAPS     N 1331   1.264   1.218   2.977 -0.1053  0.2376 -0.8040
   11SAPS   HN1 1332   1.312   1.218   3.069 -1.5100  2.1256 -0.0183
   11SAPS   HN2 1333   1.338   1.214   2.904  1.8930  3.0329  0.8634
   11SAPS   HN3 1334   1.220   1.311   2.966 -0.5435 -0.0340 -1.4081
   11SAPS   C12 1335   1.170   1.100   2.978 -0.8039  0.1020 -0.3482
   11SAPS  H12A 1336   1.191   1.063   3.078  0.5324  1.8821  0.1011
   11SAPS   C13 1337   1.023   1.151   2.971 -0.4793  0.2500  0.1949
   11SAPS  O13A 1338   0.994   1.269   2.935 -0.1273 -0.6936 -0.0712
   11SAPS  O13B 1339   0.936   1.074   3.011 -0.3894  0.2638 -0.3110
   11SAPS   C11 1340   1.192   0.998   2.862 -0.0729  0.0175 -0.2526
   11SAPS  H11A 1341   1.169   1.047   2.765 -1.8713  1.4428  0.8217
   11SAPS  H11B 1342   1.129   0.908   2.879  2.7745 -1.3544  6.0778
   11SAPS     P 1343   1.394   0.837   2.921  0.5088 -0.0024  0.1602
   11SAPS   O13 1344   1.302   0.728   2.886 -0.2790  0.2186  0.1961
   11SAPS   O14 1345   1.543   0.829   2.896  0.6810  0.0726  0.5352
   11SAPS   O12 1346   1.329   0.959   2.859  0.5856 -0.2664 -0.3970
   11SAPS   O11 1347   1.369   0.861   3.076 -0.2470 -0.1993  0.1191
   11SAPS    C1 1348   1.472   0.935   3.144 -0.2330 -1.1089  0.4940
   11SAPS    HA 1349   1.557   0.971   3.082 -0.1493 -2.0957  0.0114
   11SAPS    HB 1350   1.432   1.023   3.197 -2.0650 -1.0917 -0.8131
   11SAPS    C2 1351   1.531   0.854   3.258  0.8652 -0.2454 -0.1761
   11SAPS    HS 1352   1.587   0.768   3.215  0.6925 -0.4602  0.0228
   11SAPS   O21 1353   1.423   0.807   3.342  0.2305 -0.1089 -0.2251
   11SAPS   C21 1354   1.429   0.676   3.385 -0.7011  0.1635  0.6722
   11SAPS   O22 1355   1.508   0.590   3.340 -0.2499  0.2767  0.0927
   11SAPS   C22 1356   1.321   0.653   3.490  0.2641  0.2655 -0.3329
   11SAPS   H2R 1357   1.262   0.739   3.529 -2.5803 -0.3112 -2.9387
   11SAPS   H2S 1358   1.242   0.589   3.444 -0.6846 -0.3589  2.0299
   11SAPS    C3 1359   1.628   0.944   3.343 -0.2679  0.4439 -0.4130
   11SAPS    HX 1360   1.564   1.029   3.375 -1.4240 -0.1092 -1.1711
   11SAPS    HY 1361   1.714   0.971   3.277 -0.6353  0.8009 -0.7551
   11SAPS   O31 1362   1.671   0.886   3.465 -0.0419  0.0292  0.5333
   11SAPS   C31 1363   1.772   0.807   3.451 -0.5936 -0.4093  0.0199
   11SAPS   O32 1364   1.833   0.789   3.345 -0.6405 -0.7503 -0.1377
   11SAPS   C32 1365   1.794   0.734   3.587  0.0403 -0.2068 -0.2952
   11SAPS   H2X 1366   1.896   0.744   3.630 -0.0349  2.5713 -0.6295
   11SAPS   H2Y 1367   1.786   0.625   3.565  0.8282 -0.0876 -1.2433
   11SAPS   C23 1368   1.377   0.570   3.607 -0.2567  0.4338  0.2859
   11SAPS   H3R 1369   1.431   0.645   3.670  1.2861 -2.3107  2.4500
   11SAPS   H3S 1370   1.451   0.493   3.577 -2.1420 -0.9840 -0.9667
   11SAPS   C24 1371   1.288   0.512   3.712  0.4792  0.5323  0.1351
   11SAPS   H4R 1372   1.230   0.587   3.769 -0.4755  0.6150 -0.8964
   11SAPS   H4S 1373   1.341   0.452   3.788 -3.2701 -1.2777  1.6065
   11SAPS   C25 1374   1.189   0.415   3.638  0.3932 -0.0475 -0.1078
   11SAPS   H5R 1375   1.146   0.455   3.546  0.9765 -0.9552 -0.7951
   11SAPS   C26 1376   1.162   0.290   3.682 -0.3423 -0.1286  0.1813
   11SAPS   H6R 1377   1.095   0.225   3.624 -1.6212  1.2184  0.1069
   11SAPS   C27 1378   1.214   0.224   3.812  0.1548 -0.6179 -0.3763
   11SAPS   H7R 1379   1.309   0.273   3.844 -0.0688  1.2429 -2.2983
   11SAPS   H7S 1380   1.242   0.119   3.793  0.1934 -0.4993 -0.9982
   11SAPS   C28 1381   1.112   0.235   3.923  0.7088  0.9125  0.1740
   11SAPS   H8R 1382   1.010   0.263   3.892 -0.4168 -0.7745  2.1234
   11SAPS   C29 1383   1.129   0.195   4.054 -0.0056  0.4946 -0.0585
   11SAPS   H9R 1384   1.044   0.210   4.122 -1.4436 -1.8109 -1.2070
   11SAPS  C210 1385   1.264   0.157   4.113 -0.1162  0.3134  0.2759
   11SAPS  H10R 1386   1.350   0.160   4.043 -0.4974  0.3374 -0.1973
   11SAPS  H10S 1387   1.259   0.057   4.161 -2.7509 -0.8350 -2.0522
   11SAPS  C211 1388   1.298   0.266   4.214 -0.3948  0.1048  0.4882
   11SAPS  H11R 1389   1.322   0.365   4.172 -0.3551  0.7040  1.8786
   11SAPS  C212 1390   1.324   0.256   4.342  0.9446 -0.8405 -0.6923
   11SAPS  H12R 1391   1.346   0.352   4.392  0.0998  0.5125 -2.7909
   11SAPS  C213 1392   1.321   0.135   4.432 -0.2078 -0.1011  0.1728
   11SAPS  H13R 1393   1.305   0.044   4.371 -0.6619 -0.6869  1.1370
   11SAPS  H13S 1394   1.237   0.141   4.504  0.6087 -0.3826  1.1730
   11SAPS  C214 1395   1.454   0.121   4.502  0.5420 -0.3731  0.3984
   11SAPS  H14R 1396   1.541   0.119   4.435  1.1231  1.0782  1.0591
   11SAPS  C215 1397   1.476   0.108   4.637 -0.6309 -0.7390 -0.0158
   11SAPS  H15R 1398   1.582   0.091   4.664 -0.8952 -3.9967 -0.5784
   11SAPS  C216 1399   1.383   0.119   4.760 -0.4713  0.3754 -0.3571
   11SAPS  H16R 1400   1.343   0.019   4.788  0.2191  0.9220  3.0190
   11SAPS  H16S 1401   1.306   0.197   4.747  1.3567  2.1685 -0.8858
   11SAPS  C217 1402   1.455   0.145   4.896 -0.0706 -0.0437  0.1645
   11SAPS  H17R 1403   1.371   0.154   4.968  0.3239  0.5784  0.5638
   11SAPS  H17S 1404   1.511   0.241   4.906 -0.5660  0.1181  1.6076
   11SAPS  C218 1405   1.554   0.036   4.940  0.3078 -0.1379  0.3193
   11SAPS  H18R 1406   1.645   0.045   4.876  0.9385 -2.3389  0.8162
   11SAPS  H18S 1407   1.517  -0.066   4.919  1.9068 -0.1375 -3.3216
   11SAPS  C219 1408   1.603   0.037   5.091 -0.3790 -0.4533  0.7819
   11SAPS  H19R 1409   1.623   0.144   5.117  0.1816 -1.1040  3.2456
   11SAPS  H19S 1410   1.698  -0.021   5.094 -1.6005 -2.5622  0.3458
   11SAPS  C220 1411   1.504  -0.020   5.182  0.3104 -0.2248 -0.6180
   11SAPS  H20R 1412   1.409   0.034   5.165 -1.0437 -1.8922  1.2746
   11SAPS  H20S 1413   1.540  -0.008   5.287  0.2990 -1.1116 -0.5067
   11SAPS  H20T 1414   1.498  -0.127   5.155  2.6663 -1.0733  1.7449
   11SAPS   C33 1415   1.700   0.778   3.700 -0.5214  0.4260  0.9769
   11SAPS   H3X 1416   1.597   0.798   3.666  0.0297  1.4144 -0.2008
   11SAPS   H3Y 1417   1.744   0.875   3.734  0.9243  0.7864 -1.6648
   11SAPS   C34 1418   1.711   0.678   3.805  1.2190  0.0605 -0.7469
   11SAPS   H4X 1419   1.814   0.645   3.830  0.4980 -0.8314  1.2510
   11SAPS   H4Y 1420   1.652   0.586   3.782  1.6372 -0.8309  1.4554
   11SAPS   C35 1421   1.647   0.738   3.939 -0.0659  0.2925 -0.0287
   11SAPS   H5X 1422   1.537   0.732   3.931 -0.0203 -1.7052  0.1283
   11SAPS   H5Y 1423   1.687   0.838   3.964 -2.4871  1.0848  0.8857
   11SAPS   C36 1424   1.682   0.643   4.056 -0.1458  0.0798 -0.9215
   11SAPS   H6X 1425   1.792   0.633   4.061 -0.0661  0.6535 -1.3619
   11SAPS   H6Y 1426   1.644   0.541   4.033 -2.0899  0.0260  1.9772
   11SAPS   C37 1427   1.623   0.675   4.195 -0.0150 -0.8172 -0.3773
   11SAPS   H7X 1428   1.514   0.653   4.189 -0.6614  1.6406  1.0596
   11SAPS   H7Y 1429   1.634   0.780   4.230 -1.2266 -0.8602  0.1905
   11SAPS   C38 1430   1.673   0.572   4.305  0.2672  0.3939 -0.0254
   11SAPS   H8X 1431   1.783   0.577   4.319  0.2435 -0.9687  0.8481
   11SAPS   H8Y 1432   1.655   0.474   4.257 -1.2341  1.9273 -2.8661
   11SAPS   C39 1433   1.593   0.592   4.432  0.0868 -0.3641  0.9907
   11SAPS   H9X 1434   1.487   0.599   4.399  0.2459 -4.1427 -0.8236
   11SAPS   H9Y 1435   1.613   0.692   4.477 -1.4354  0.1786  0.5347
   11SAPS  C310 1436   1.586   0.480   4.524  0.3127 -0.4121 -0.0057
   11SAPS  H10X 1437   1.687   0.468   4.569  1.4977  1.3282 -2.0031
   11SAPS  H10Y 1438   1.559   0.390   4.464  0.5119 -1.6136  1.6526
   11SAPS  C311 1439   1.478   0.492   4.623  0.4128  0.3156  1.0696
   11SAPS  H11X 1440   1.453   0.393   4.668  0.5503  0.2236  0.9449
   11SAPS  H11Y 1441   1.377   0.516   4.583 -0.7723  2.1751  4.6833
   11SAPS  C312 1442   1.498   0.592   4.743  0.4372 -0.0004 -0.6405
   11SAPS  H12X 1443   1.494   0.695   4.704 -1.5021  0.0361 -0.4422
   11SAPS  H12Y 1444   1.599   0.587   4.788 -0.0727  0.9662  0.6993
   11SAPS  C313 1445   1.398   0.572   4.855 -0.1731 -0.9006 -1.2411
   11SAPS  H13X 1446   1.438   0.621   4.946 -0.4459 -0.5954 -1.2845
   11SAPS  H13Y 1447   1.403   0.461   4.865  1.4101 -0.7742 -0.3811
   11SAPS  C314 1448   1.259   0.628   4.837  0.3258  0.0947  0.5519
   11SAPS  H14X 1449   1.189   0.569   4.773  0.7331  0.5880 -0.3711
   11SAPS  H14Y 1450   1.268   0.721   4.777  2.9556 -0.6605 -0.3585
   11SAPS  C315 1451   1.179   0.662   4.963  0.3882 -0.7632 -0.4908
   11SAPS  H15X 1452   1.254   0.707   5.031 -1.1598 -0.0376  0.7996
   11SAPS  H15Y 1453   1.145   0.567   5.010 -1.9210  1.0172  1.6802
   11SAPS  C316 1454   1.068   0.760   4.948 -0.1271  0.2616  0.9978
   11SAPS  H16X 1455   0.988   0.714   4.885 -2.3189  0.5290  3.4170
   11SAPS  H16Y 1456   1.110   0.847   4.893  0.4053 -0.6669 -0.1089
   11SAPS  C317 1457   1.001   0.809   5.078 -0.4352  0.3368 -0.2657
   11SAPS  H17X 1458   1.077   0.835   5.155 -0.1055  4.6129 -1.7315
   11SAPS  H17Y 1459   0.932   0.733   5.120  1.0277 -0.2847  1.1262
   11SAPS  C318 1460   0.931   0.942   5.060 -0.0256 -0.5862 -0.5411
   11SAPS  H18X 1461   0.839   0.922   5.001 -0.3819 -0.8799  0.1146
   11SAPS  H18Y 1462   1.004   1.014   5.017  0.3875 -1.0181 -0.5721
   11SAPS  H18Z 1463   0.902   0.989   5.156  1.5588 -1.9551  0.6720
   12SAPS     N 1464   0.488   6.334   2.737 -0.1572  0.4394  0.5975
   12SAPS   HN1 1465   0.579   6.331   2.787  0.5370 -0.8915 -0.6528
   12SAPS   HN2 1466   0.479   6.429   2.696 -2.1204 -0.1145 -0.4246
   12SAPS   HN3 1467   0.406   6.313   2.798 -1.4199  2.5794 -0.2481
   12SAPS   C12 1468   0.501   6.242   2.619 -0.3308  0.0878 -0.5300
   12SAPS  H12A 1469   0.399   6.234   2.583 -1.4261 -1.2550  2.5762
   12SAPS   C13 1470   0.596   6.304   2.516  0.0721  1.0578 -0.3891
   12SAPS  O13A 1471   0.625   6.425   2.528  0.2224  0.1486  0.1480
   12SAPS  O13B 1472   0.602   6.244   2.405  0.3864 -0.1809  0.1635
   12SAPS   C11 1473   0.558   6.101   2.667  0.4078 -0.0876 -0.4231
   12SAPS  H11A 1474   0.664   6.109   2.699  0.2283  1.3735 -0.1262
   12SAPS  H11B 1475   0.554   6.034   2.578 -1.0978 -0.5898  0.0076
   12SAPS     P 1476   0.497   5.921   2.852 -0.2200  0.2008 -0.0354
   12SAPS   O13 1477   0.392   5.914   2.952 -0.2136 -0.0625  0.5390
   12SAPS   O14 1478   0.504   5.799   2.774 -0.4279 -0.1549 -0.1863
   12SAPS   O12 1479   0.467   6.040   2.766 -0.1412  0.1403  0.2948
   12SAPS   O11 1480   0.645   5.943   2.928  0.2026 -0.3054  0.6054
   12SAPS    C1 1481   0.665   6.058   3.014  0.2489  0.1507  0.1429
   12SAPS    HA 1482   0.774   6.081   3.009  0.6610 -1.6430 -0.1473
   12SAPS    HB 1483   0.615   6.152   2.983 -1.1898 -0.3783  0.8156
   12SAPS    C2 1484   0.646   6.015   3.163  0.7507  0.7406 -0.0165
   12SAPS    HS 1485   0.541   6.023   3.199  0.4966  2.5707 -1.0442
   12SAPS   O21 1486   0.721   6.097   3.250 -0.6521  0.3790 -0.1626
   12SAPS   C21 1487   0.665   6.226   3.270 -0.0806  0.5322  0.0923
   12SAPS   O22 1488   0.561   6.253   3.212  0.0385 -0.8493 -0.4396
   12SAPS   C22 1489   0.742   6.307   3.372  0.0694 -0.0401 -0.1175
   12SAPS   H2R 1490   0.828   6.338   3.310 -0.7489  2.0132 -0.2918
   12SAPS   H2S 1491   0.684   6.397   3.403 -1.1742 -0.6224 -0.6863
   12SAPS    C3 1492   0.685   5.871   3.180 -0.2557  1.2350  0.6408
   12SAPS    HX 1493   0.789   5.856   3.144 -0.8100  0.4248 -0.7084
   12SAPS    HY 1494   0.625   5.803   3.116  0.3965  1.7803 -0.5943
   12SAPS   O31 1495   0.655   5.830   3.319 -0.3654  0.3762 -0.2480
   12SAPS   C31 1496   0.766   5.816   3.393 -0.2153  0.9753  0.5178
   12SAPS   O32 1497   0.880   5.833   3.352 -0.0639  0.7700  0.2664
   12SAPS   C32 1498   0.738   5.766   3.532  0.7184 -0.1807  0.4987
   12SAPS   H2X 1499   0.824   5.700   3.551  1.5027  0.1100 -1.7141
   12SAPS   H2Y 1500   0.639   5.715   3.526  0.9375 -0.5390 -4.0526
   12SAPS   C23 1501   0.810   6.224   3.487  0.1321 -0.1109  0.8386
   12SAPS   H3R 1502   0.873   6.150   3.432  0.8692  1.3950 -0.4492
   12SAPS   H3S 1503   0.739   6.177   3.557  1.0109 -2.5604  0.1846
   12SAPS   C24 1504   0.904   6.308   3.572 -0.2127 -0.1548  0.2705
   12SAPS   H4R 1505   0.850   6.391   3.624  3.1760  2.1975  0.3446
   12SAPS   H4S 1506   0.980   6.351   3.504 -1.1070  2.3139  0.7282
   12SAPS   C25 1507   0.964   6.221   3.671  0.0710  0.0567 -0.4653
   12SAPS   H5R 1508   0.904   6.200   3.761 -1.4606  1.1376 -1.1983
   12SAPS   C26 1509   1.076   6.150   3.649 -0.3964 -0.2995 -0.3665
   12SAPS   H6R 1510   1.122   6.104   3.738  1.0637  0.1852 -0.8515
   12SAPS   C27 1511   1.158   6.145   3.518  0.2438  0.4389  0.6492
   12SAPS   H7R 1512   1.170   6.243   3.467 -0.3438  0.1889  0.0049
   12SAPS   H7S 1513   1.102   6.089   3.440 -0.7592  2.2312  0.0457
   12SAPS   C28 1514   1.289   6.076   3.519  0.5201  0.4062 -0.2939
   12SAPS   H8R 1515   1.310   5.998   3.444  2.1131  0.8926 -0.3868
   12SAPS   C29 1516   1.401   6.115   3.579 -0.7997 -0.3414 -0.1888
   12SAPS   H9R 1517   1.497   6.065   3.564 -0.1759 -0.0377  2.3628
   12SAPS  C210 1518   1.415   6.232   3.673  0.1910 -0.4169 -0.7872
   12SAPS  H10R 1519   1.400   6.194   3.776 -1.5265 -0.2120 -0.9253
   12SAPS  H10S 1520   1.324   6.296   3.663 -0.9283 -1.5504  1.3179
   12SAPS  C211 1521   1.544   6.305   3.673 -0.1442  0.2369 -0.2298
   12SAPS  H11R 1522   1.621   6.237   3.714 -1.4735 -1.3661 -0.2907
   12SAPS  C212 1523   1.574   6.429   3.659 -0.6279 -0.5651  0.5900
   12SAPS  H12R 1524   1.677   6.469   3.665 -1.9615  2.9934  3.5573
   12SAPS  C213 1525   1.478   6.542   3.645  0.0397  0.1957  1.1314
   12SAPS  H13R 1526   1.385   6.526   3.702 -0.4271  3.0227  1.2671
   12SAPS  H13S 1527   1.445   6.545   3.539 -2.1874 -0.5031  1.7627
   12SAPS  C214 1528   1.537   6.678   3.685 -0.5361 -0.0814  0.6051
   12SAPS  H14R 1529   1.576   6.739   3.602 -1.3410 -0.0907  0.2048
   12SAPS  C215 1530   1.528   6.746   3.798 -0.0388 -0.2738 -0.4237
   12SAPS  H15R 1531   1.577   6.843   3.816 -1.4217  0.3687  0.0878
   12SAPS  C216 1532   1.470   6.681   3.917 -0.4977  0.4953 -0.0412
   12SAPS  H16R 1533   1.428   6.580   3.895  0.3693  0.1834 -0.2970
   12SAPS  H16S 1534   1.383   6.747   3.938 -2.3283 -0.6461 -3.1808
   12SAPS  C217 1535   1.564   6.690   4.030  0.0455 -0.3154  0.5123
   12SAPS  H17R 1536   1.508   6.663   4.122  1.4024  2.0103  2.1282
   12SAPS  H17S 1537   1.588   6.798   4.038 -0.9775  0.2400 -2.5206
   12SAPS  C218 1538   1.686   6.599   4.018 -0.2140 -0.4617  0.4255
   12SAPS  H18R 1539   1.743   6.619   4.111 -0.3898 -0.4015  0.5205
   12SAPS  H18S 1540   1.742   6.631   3.927 -0.9113 -0.0076  0.1445
   12SAPS  C219 1541   1.667   6.447   4.006 -0.8444  0.0094  0.0816
   12SAPS  H19R 1542   1.763   6.393   3.997  1.3577  3.4103  1.3468
   12SAPS  H19S 1543   1.603   6.437   3.916 -0.5548  1.5887 -0.3354
   12SAPS  C220 1544   1.584   6.378   4.117 -0.9375 -0.2353  0.3591
   12SAPS  H20R 1545   1.603   6.268   4.124 -2.1798 -0.3912  1.9510
   12SAPS  H20S 1546   1.476   6.389   4.097 -0.6705  1.8314 -0.1186
   12SAPS  H20T 1547   1.610   6.424   4.215  1.9367  2.6553 -1.5369
   12SAPS   C33 1548   0.743   5.880   3.634 -0.6358  0.7569  0.4074
   12SAPS   H3X 1549   0.665   5.958   3.620 -1.0103 -0.0210 -2.2957
   12SAPS   H3Y 1550   0.844   5.925   3.639  0.5355 -1.2725 -2.5269
   12SAPS   C34 1551   0.703   5.821   3.773 -0.5127  0.2966  0.1215
   12SAPS   H4X 1552   0.663   5.717   3.770 -0.1831  0.1911 -1.4347
   12SAPS   H4Y 1553   0.626   5.889   3.815 -2.0421 -0.6018 -1.1042
   12SAPS   C35 1554   0.829   5.822   3.861  0.1256 -0.6578 -0.1281
   12SAPS   H5X 1555   0.867   5.926   3.871 -0.2562 -0.7027  2.4587
   12SAPS   H5Y 1556   0.906   5.747   3.831  1.8529  0.5636  1.0218
   12SAPS   C36 1557   0.784   5.776   3.999  0.1282  0.1015 -0.3361
   12SAPS   H6X 1558   0.758   5.669   3.992 -0.2670 -0.1172  2.9081
   12SAPS   H6Y 1559   0.699   5.837   4.035 -1.1025 -1.9548  0.3681
   12SAPS   C37 1560   0.897   5.778   4.105  0.3204  0.1861 -0.0268
   12SAPS   H7X 1561   0.948   5.877   4.105  2.8198 -1.0239 -1.2264
   12SAPS   H7Y 1562   0.979   5.708   4.080  0.4581  0.3104  0.0780
   12SAPS   C38 1563   0.855   5.737   4.243  0.4966  0.3224  0.1749
   12SAPS   H8X 1564   0.822   5.632   4.238  0.8776  0.2531 -1.3841
   12SAPS   H8Y 1565   0.774   5.801   4.286 -0.1303  0.3553 -1.0164
   12SAPS   C39 1566   0.973   5.741   4.346  0.1741 -0.0251  0.6438
   12SAPS   H9X 1567   1.001   5.848   4.360  0.8739 -0.1552  0.2693
   12SAPS   H9Y 1568   1.061   5.688   4.305 -1.1501 -3.2863  1.7338
   12SAPS  C310 1569   0.947   5.666   4.484  1.2847  0.4293  0.1279
   12SAPS  H10X 1570   1.038   5.683   4.546  0.1374  0.6475  1.8149
   12SAPS  H10Y 1571   0.933   5.556   4.475  0.1104  0.7049 -2.0317
   12SAPS  C311 1572   0.829   5.714   4.568 -0.0824 -0.2977 -0.0048
   12SAPS  H11X 1573   0.732   5.691   4.518 -0.4279  0.6988  0.1632
   12SAPS  H11Y 1574   0.813   5.823   4.583 -0.5381 -0.5616  1.5366
   12SAPS  C312 1575   0.827   5.666   4.715 -0.7576 -0.1869  1.0241
   12SAPS  H12X 1576   0.871   5.748   4.776 -1.5044  0.9210  0.1145
   12SAPS  H12Y 1577   0.873   5.565   4.716  0.4493  0.1850 -2.6708
   12SAPS  C313 1578   0.687   5.645   4.766  0.3412  0.4915 -0.8403
   12SAPS  H13X 1579   0.687   5.555   4.832 -2.2593  1.5627  0.7717
   12SAPS  H13Y 1580   0.629   5.621   4.675 -2.3842  2.2574  0.3168
   12SAPS  C314 1581   0.628   5.762   4.851  0.1742  0.2503 -0.5067
   12SAPS  H14X 1582   0.702   5.792   4.928  0.5833  1.3719 -1.3159
   12SAPS  H14Y 1583   0.546   5.717   4.911  0.5307 -1.3531 -1.1696
   12SAPS  C315 1584   0.580   5.890   4.782 -0.0289 -0.1489 -0.2841
   12SAPS  H15X 1585   0.486   5.878   4.724  1.0598 -0.8281 -1.9949
   12SAPS  H15Y 1586   0.662   5.917   4.712 -0.8564 -2.3520 -2.2249
   12SAPS  C316 1587   0.550   6.013   4.880 -0.9525 -0.2608  0.0676
   12SAPS  H16X 1588   0.504   6.081   4.805  1.1247  0.2042 -0.8589
   12SAPS  H16Y 1589   0.644   6.053   4.924 -1.7410  0.0837  1.4990
   12SAPS  C317 1590   0.441   5.976   4.979  0.0797 -0.7230  0.1110
   12SAPS  H17X 1591   0.489   5.928   5.067  3.1369 -1.1502 -1.6487
   12SAPS  H17Y 1592   0.382   5.893   4.933 -0.8539  0.2995 -0.5856
   12SAPS  C318 1593   0.350   6.100   5.009 -0.3218  0.7659  0.6965
   12SAPS  H18X 1594   0.276   6.064   5.084  2.1591 -3.3595  1.4230
   12SAPS  H18Y 1595   0.302   6.126   4.912  0.4994 -3.7195 -1.1511
   12SAPS  H18Z 1596   0.400   6.185   5.060 -2.2458  3.8712 -2.1694
   13SAPS     N 1597   0.856   6.543   2.542 -0.3471 -0.4690 -0.1124
   13SAPS   HN1 1598   0.835   6.601   2.458 -2.9956 -2.3999 -0.9290
   13SAPS   HN2 1599   0.935   6.477   2.529  1.1723  0.8705  1.8570
   13SAPS   HN3 1600   0.768   6.488   2.555 -0.6706 -0.8958 -3.3293
   13SAPS   C12 1601   0.895   6.631   2.657  0.9028  0.3684 -0.5523
   13SAPS  H12A 1602   0.925   6.561   2.734  0.6465  1.0896  0.2252
   13SAPS   C13 1603   1.018   6.729   2.627  0.5406 -0.0964 -0.7648
   13SAPS  O13A 1604   1.055   6.741   2.509 -0.2027  0.5352 -0.2014
   13SAPS  O13B 1605   1.065   6.803   2.719 -0.2807 -0.7021  0.3129
   13SAPS   C11 1606   0.764   6.702   2.720  0.3324 -0.2405  0.3193
   13SAPS  H11A 1607   0.744   6.776   2.640 -2.1392 -1.4519 -0.2742
   13SAPS  H11B 1608   0.803   6.740   2.816 -0.4169  1.5578 -0.0492
   13SAPS     P 1609   0.503   6.688   2.750 -0.0630 -0.2301 -0.3544
   13SAPS   O13 1610   0.496   6.814   2.676 -0.3032 -0.2283  0.4038
   13SAPS   O14 1611   0.416   6.574   2.713  0.5525 -0.0398  0.2490
   13SAPS   O12 1612   0.648   6.622   2.733  0.4519 -0.5254  0.0431
   13SAPS   O11 1613   0.494   6.726   2.902 -0.0539  0.2621 -0.4380
   13SAPS    C1 1614   0.479   6.619   2.998 -0.5344  0.2310 -0.8542
   13SAPS    HA 1615   0.384   6.567   2.972  1.2758 -2.7605 -2.0524
   13SAPS    HB 1616   0.562   6.548   2.980 -0.5100  0.5812 -2.2864
   13SAPS    C2 1617   0.490   6.671   3.144 -0.4097  0.6395 -0.1312
   13SAPS    HS 1618   0.397   6.728   3.162 -0.5317  0.1118  0.9744
   13SAPS   O21 1619   0.613   6.751   3.153  0.2459  0.1111 -0.4259
   13SAPS   C21 1620   0.617   6.840   3.251 -0.0060 -0.4561  0.2513
   13SAPS   O22 1621   0.525   6.870   3.320  0.0000 -0.2102 -0.1865
   13SAPS   C22 1622   0.755   6.907   3.253  0.6769  0.5607 -0.6603
   13SAPS   H2R 1623   0.830   6.828   3.231  0.7158  0.2836  0.3977
   13SAPS   H2S 1624   0.758   6.993   3.183  2.5508  0.9682 -0.1375
   13SAPS    C3 1625   0.492   6.551   3.242 -0.1556  0.0046  0.6768
   13SAPS    HX 1626   0.582   6.493   3.212  0.1735  0.9225 -0.1675
   13SAPS    HY 1627   0.398   6.492   3.231 -0.5421 -0.2431  4.1321
   13SAPS   O31 1628   0.495   6.600   3.377  0.1328  0.6029 -0.4285
   13SAPS   C31 1629   0.381   6.634   3.446 -0.2532  0.5606 -0.3420
   13SAPS   O32 1630   0.273   6.648   3.402  0.0959  1.0204 -0.0112
   13SAPS   C32 1631   0.417   6.632   3.596  1.0801 -0.4367 -0.2786
   13SAPS   H2X 1632   0.331   6.677   3.650 -1.0345 -2.9869 -1.2859
   13SAPS   H2Y 1633   0.509   6.692   3.603  0.5742  0.2046  1.2367
   13SAPS   C23 1634   0.783   6.970   3.392 -0.6287 -0.0297 -0.5584
   13SAPS   H3R 1635   0.789   6.889   3.468 -0.7631  2.1563  1.9378
   13SAPS   H3S 1636   0.697   7.033   3.422  0.1061  0.5997  0.2737
   13SAPS   C24 1637   0.904   7.074   3.399  0.6930  0.1571 -0.4105
   13SAPS   H4R 1638   0.999   7.029   3.364  0.3491  0.1632 -1.3999
   13SAPS   H4S 1639   0.913   7.102   3.506  0.1131  0.9934 -0.5698
   13SAPS   C25 1640   0.868   7.204   3.320  1.3296 -1.0676 -0.4553
   13SAPS   H5R 1641   0.888   7.196   3.213  0.3500 -0.6476 -0.6843
   13SAPS   C26 1642   0.823   7.326   3.365  0.0429  0.0292  1.2523
   13SAPS   H6R 1643   0.802   7.396   3.283  1.7968 -0.5952  0.1954
   13SAPS   C27 1644   0.779   7.358   3.508  0.1108 -0.0716 -0.4291
   13SAPS   H7R 1645   0.758   7.262   3.560 -0.9795 -1.4702 -3.2076
   13SAPS   H7S 1646   0.695   7.431   3.513  0.9785  0.9724 -0.6422
   13SAPS   C28 1647   0.895   7.433   3.576 -0.0380 -0.1424 -0.2565
   13SAPS   H8R 1648   0.962   7.497   3.516 -1.3954  1.5089 -0.0827
   13SAPS   C29 1649   0.918   7.426   3.709 -0.1585  0.6842  1.1224
   13SAPS   H9R 1650   0.999   7.488   3.753 -0.6851  1.5479  0.8981
   13SAPS  C210 1651   0.836   7.350   3.801  0.0517  0.4422  0.6238
   13SAPS  H10R 1652   0.784   7.262   3.758  0.7871 -0.0290  0.7009
   13SAPS  H10S 1653   0.756   7.426   3.820  0.9925  1.6781 -0.2361
   13SAPS  C211 1654   0.911   7.306   3.923  0.3725 -0.3883 -0.4192
   13SAPS  H11R 1655   1.020   7.292   3.916  0.2788 -0.4161 -2.5196
   13SAPS  C212 1656   0.853   7.300   4.046  0.2384  0.1576 -0.5789
   13SAPS  H12R 1657   0.922   7.281   4.129 -1.6966 -2.2634  0.5938
   13SAPS  C213 1658   0.715   7.327   4.092  0.8020  0.2564 -0.5336
   13SAPS  H13R 1659   0.688   7.236   4.151  0.1812  0.4900 -0.4489
   13SAPS  H13S 1660   0.638   7.328   4.011 -1.4534 -1.6419  1.4164
   13SAPS  C214 1661   0.720   7.451   4.176 -0.2000 -0.1119 -0.0093
   13SAPS  H14R 1662   0.811   7.470   4.234 -0.0748  0.9173 -0.5192
   13SAPS  C215 1663   0.612   7.517   4.222 -0.5010 -0.0719 -0.3933
   13SAPS  H15R 1664   0.634   7.602   4.288  0.4825 -0.7505  0.1945
   13SAPS  C216 1665   0.470   7.472   4.189 -0.2452 -0.2955  0.0706
   13SAPS  H16R 1666   0.468   7.388   4.116  2.1384 -1.5732  1.3577
   13SAPS  H16S 1667   0.410   7.556   4.146 -0.7621 -0.1967  0.9754
   13SAPS  C217 1668   0.384   7.435   4.312  0.3615  0.2946  0.7799
   13SAPS  H17R 1669   0.289   7.387   4.281  0.8650 -0.2383  0.0519
   13SAPS  H17S 1670   0.352   7.522   4.374 -0.0866 -1.2666  2.8782
   13SAPS  C218 1671   0.444   7.326   4.397 -0.5554  0.4813 -0.7079
   13SAPS  H18R 1672   0.546   7.351   4.432 -0.0650  0.4978 -2.0832
   13SAPS  H18S 1673   0.457   7.232   4.338 -1.2250  0.3379 -0.6307
   13SAPS  C219 1674   0.350   7.280   4.514 -0.0526  0.6060 -0.3086
   13SAPS  H19R 1675   0.251   7.248   4.475  0.6120 -0.8116 -0.8963
   13SAPS  H19S 1676   0.341   7.364   4.586  0.2816 -0.2711  0.7830
   13SAPS  C220 1677   0.410   7.167   4.595 -0.0636  0.0328 -0.3460
   13SAPS  H20R 1678   0.490   7.198   4.665 -0.6564  1.2601 -0.1885
   13SAPS  H20S 1679   0.450   7.091   4.525  0.7954  0.9226 -0.8499
   13SAPS  H20T 1680   0.331   7.119   4.657 -0.2965 -0.1378 -0.7697
   13SAPS   C33 1681   0.441   6.496   3.648  0.7560  0.0795  0.1669
   13SAPS   H3X 1682   0.499   6.431   3.579 -0.5577  0.7285 -1.6197
   13SAPS   H3Y 1683   0.346   6.440   3.657  1.1459 -0.6656 -0.2740
   13SAPS   C34 1684   0.527   6.510   3.779  0.3451 -0.6327  0.0659
   13SAPS   H4X 1685   0.490   6.580   3.856 -0.8116  0.6491 -1.5760
   13SAPS   H4Y 1686   0.633   6.534   3.758 -0.2320  0.2119 -2.1956
   13SAPS   C35 1687   0.541   6.375   3.855  1.0449  0.1603  0.1562
   13SAPS   H5X 1688   0.591   6.312   3.778  0.4586  0.1235 -0.2040
   13SAPS   H5Y 1689   0.448   6.321   3.882 -0.3009  1.1206 -2.2813
   13SAPS   C36 1690   0.629   6.382   3.981  0.0284 -0.5328  0.4487
   13SAPS   H6X 1691   0.584   6.436   4.067 -0.4974  1.2443 -0.9041
   13SAPS   H6Y 1692   0.712   6.449   3.950 -0.9635  0.2085 -0.6336
   13SAPS   C37 1693   0.687   6.246   4.026  0.0013  0.3647  0.3138
   13SAPS   H7X 1694   0.740   6.197   3.942 -1.1080 -0.6094  0.1638
   13SAPS   H7Y 1695   0.596   6.189   4.055 -0.2459 -0.2705 -1.5793
   13SAPS   C38 1696   0.775   6.263   4.152  0.2705 -0.2094  0.0141
   13SAPS   H8X 1697   0.727   6.329   4.227  0.4764 -0.1153  0.0663
   13SAPS   H8Y 1698   0.869   6.306   4.110 -0.2819  0.5719 -0.4669
   13SAPS   C39 1699   0.802   6.130   4.228  0.0063 -0.1854 -0.3037
   13SAPS   H9X 1700   0.835   6.064   4.145 -0.4345 -0.5131 -0.2227
   13SAPS   H9Y 1701   0.704   6.094   4.266  0.6851  1.1865  3.0495
   13SAPS  C310 1702   0.890   6.128   4.350  0.2392 -0.1898  0.6987
   13SAPS  H10X 1703   0.990   6.168   4.322  0.0533  0.8812  1.4875
   13SAPS  H10Y 1704   0.899   6.022   4.380  1.2444 -0.2619  0.1904
   13SAPS  C311 1705   0.828   6.212   4.458 -0.1656  0.4113  0.6298
   13SAPS  H11X 1706   0.722   6.185   4.478  0.1531  0.1679  2.1205
   13SAPS  H11Y 1707   0.849   6.319   4.435  0.1771  0.3542  0.6750
   13SAPS  C312 1708   0.888   6.165   4.594  0.2189  0.5697  0.2336
   13SAPS  H12X 1709   0.997   6.153   4.579  0.2658  1.2195  0.0597
   13SAPS  H12Y 1710   0.849   6.064   4.621  0.9059  0.4135  0.6863
   13SAPS  C313 1711   0.858   6.250   4.725  0.0955  0.0700  0.2091
   13SAPS  H13X 1712   0.749   6.258   4.743  0.1599 -1.1448  1.2674
   13SAPS  H13Y 1713   0.892   6.354   4.705  1.6584 -0.5336 -0.4288
   13SAPS  C314 1714   0.921   6.190   4.842 -0.2139 -0.0413 -0.9303
   13SAPS  H14X 1715   0.858   6.111   4.889  0.2369 -0.7278 -1.4581
   13SAPS  H14Y 1716   0.928   6.268   4.920  1.3517 -0.5984 -0.4769
   13SAPS  C315 1717   1.062   6.122   4.817 -0.0773  0.5782  0.0663
   13SAPS  H15X 1718   1.138   6.184   4.766  1.2994 -0.0149  1.3372
   13SAPS  H15Y 1719   1.047   6.037   4.746 -2.9541 -1.3627  2.7073
   13SAPS  C316 1720   1.123   6.057   4.941  0.4371 -0.5571  0.1293
   13SAPS  H16X 1721   1.093   6.120   5.027  0.6594 -1.1515  0.6433
   13SAPS  H16Y 1722   1.233   6.069   4.946  0.6435 -1.1907 -1.9200
   13SAPS  C317 1723   1.068   5.921   4.979  0.6904  0.5227 -0.2329
   13SAPS  H17X 1724   0.961   5.907   4.950  0.9793  1.6494 -2.0022
   13SAPS  H17Y 1725   1.078   5.910   5.089  0.3182  2.2265  0.0119
   13SAPS  C318 1726   1.139   5.812   4.900  0.6419  0.1984 -0.1807
   13SAPS  H18X 1727   1.112   5.825   4.793  0.6443  1.5573 -0.0399
   13SAPS  H18Y 1728   1.117   5.713   4.943 -0.0035  0.8040  0.9189
   13SAPS  H18Z 1729   1.250   5.827   4.902  0.5345  1.6905 -1.9608
   14SAPS     N 1730   1.366   0.464   2.840  0.1570  0.3896 -1.1577
   14SAPS   HN1 1731   1.277   0.411   2.846  0.7930 -0.5192  2.0290
   14SAPS   HN2 1732   1.429   0.450   2.922 -2.7866  2.9737  1.7971
   14SAPS   HN3 1733   1.344   0.565   2.847  1.9874  0.9072 -2.2018
   14SAPS   C12 1734   1.443   0.429   2.710 -0.0190  0.0110  0.0252
   14SAPS  H12A 1735   1.452   0.321   2.714  3.9425 -0.0332 -3.3867
   14SAPS   C13 1736   1.367   0.477   2.579  0.7136  0.3089  0.2373
   14SAPS  O13A 1737   1.244   0.504   2.589 -0.2244  0.3928  0.5505
   14SAPS  O13B 1738   1.426   0.451   2.467  0.0724 -0.5027 -0.5044
   14SAPS   C11 1739   1.585   0.483   2.706  0.4672 -0.3747  0.5357
   14SAPS  H11A 1740   1.586   0.593   2.713 -1.6742 -0.0283 -2.6070
   14SAPS  H11B 1741   1.642   0.459   2.614  2.1235  3.8730  0.2608
   14SAPS     P 1742   1.743   0.296   2.812  0.3021  0.1700 -0.0246
   14SAPS   O13 1743   1.662   0.188   2.746 -0.5212  0.1685 -0.0183
   14SAPS   O14 1744   1.869   0.338   2.748 -0.1702  0.3141  0.1876
   14SAPS   O12 1745   1.645   0.423   2.818 -0.5701  0.4918  0.7288
   14SAPS   O11 1746   1.769   0.247   2.963 -0.2944 -0.1009  0.4711
   14SAPS    C1 1747   1.849   0.318   3.057 -0.0878 -0.0561 -0.6274
   14SAPS    HA 1748   1.957   0.312   3.030  0.4834  2.6854  0.7103
   14SAPS    HB 1749   1.823   0.426   3.055  0.6853  0.2638  2.2222
   14SAPS    C2 1750   1.830   0.258   3.200 -0.9093 -0.0848  0.4375
   14SAPS    HS 1751   1.886   0.162   3.201  0.0377  0.4572  0.6113
   14SAPS   O21 1752   1.689   0.224   3.220  0.1032  0.1149  0.2870
   14SAPS   C21 1753   1.661   0.129   3.303  0.5402  1.0016 -0.4464
   14SAPS   O22 1754   1.742   0.048   3.348 -0.1710 -0.4891 -0.5856
   14SAPS   C22 1755   1.516   0.126   3.354 -0.3184 -0.5307  0.4991
   14SAPS   H2R 1756   1.469   0.025   3.348 -2.3127  0.3145  1.1105
   14SAPS   H2S 1757   1.511   0.150   3.462  0.3579 -1.5970  0.7761
   14SAPS    C3 1758   1.890   0.343   3.318  0.2385  0.9857 -0.4790
   14SAPS    HX 1759   1.829   0.435   3.332 -1.8384 -0.2689 -0.8758
   14SAPS    HY 1760   1.996   0.370   3.301  0.8069  1.3928  3.0350
   14SAPS   O31 1761   1.899   0.269   3.439  0.2061  0.0184  0.2313
   14SAPS   C31 1762   1.807   0.292   3.535  0.0652 -0.6289  0.2358
   14SAPS   O32 1763   1.701   0.349   3.521  0.2828 -0.3120 -0.4881
   14SAPS   C32 1764   1.852   0.222   3.662 -0.7473 -0.3651 -0.5055
   14SAPS   H2X 1765   1.962   0.207   3.669 -0.9681 -3.1354 -1.5108
   14SAPS   H2Y 1766   1.806   0.122   3.644 -0.2124 -0.5314 -0.9748
   14SAPS   C23 1767   1.431   0.242   3.297  0.1889 -0.4208 -0.2642
   14SAPS   H3R 1768   1.447   0.254   3.188 -2.2047  0.0538 -0.6166
   14SAPS   H3S 1769   1.473   0.338   3.335  0.2660 -0.3283 -0.5858
   14SAPS   C24 1770   1.277   0.245   3.328  0.0332 -0.6347  0.9702
   14SAPS   H4R 1771   1.228   0.342   3.306  1.0220  0.0298  1.6387
   14SAPS   H4S 1772   1.243   0.225   3.432 -4.4860 -2.4992 -0.6044
   14SAPS   C25 1773   1.203   0.129   3.249 -0.0786  0.0254  0.0422
   14SAPS   H5R 1774   1.217   0.150   3.142  1.2570  4.0666  0.8173
   14SAPS   C26 1775   1.164   0.008   3.296 -0.5560 -0.1720 -0.0968
   14SAPS   H6R 1776   1.121  -0.069   3.230  0.7113 -0.7047 -0.3256
   14SAPS   C27 1777   1.169  -0.063   3.437 -0.4090 -0.2097  0.0674
   14SAPS   H7R 1778   1.188   0.026   3.501 -0.3260  0.5676 -1.0183
   14SAPS   H7S 1779   1.253  -0.135   3.448  0.4162  1.0603  3.0976
   14SAPS   C28 1780   1.035  -0.115   3.488 -0.3260  0.3371  0.0576
   14SAPS   H8R 1781   0.959  -0.130   3.410 -1.5681  0.1686  1.2407
   14SAPS   C29 1782   1.006  -0.132   3.623  0.2969 -0.3229  0.6045
   14SAPS   H9R 1783   0.906  -0.171   3.645 -0.7639  1.4355 -0.7984
   14SAPS  C210 1784   1.107  -0.129   3.736 -0.5567 -0.5936 -0.0330
   14SAPS  H10R 1785   1.062  -0.061   3.812  1.2439  1.8182 -0.9931
   14SAPS  H10S 1786   1.199  -0.080   3.699 -1.7676  1.4155 -0.5608
   14SAPS  C211 1787   1.125  -0.263   3.802  0.1932 -0.5493 -0.2990
   14SAPS  H11R 1788   1.146  -0.345   3.731  0.9013  0.5616 -1.4261
   14SAPS  C212 1789   1.113  -0.303   3.933 -0.0933 -0.0242  0.6134
   14SAPS  H12R 1790   1.117  -0.411   3.954 -3.1077 -0.0827  1.3522
   14SAPS  C213 1791   1.088  -0.214   4.056  0.4217 -0.6441  0.0302
   14SAPS  H13R 1792   1.008  -0.264   4.115  1.3911  0.5149  2.4491
   14SAPS  H13S 1793   1.051  -0.116   4.020  1.7514 -0.4698 -0.9643
   14SAPS  C214 1794   1.215  -0.190   4.137  1.1405 -0.1694 -0.6270
   14SAPS  H14R 1795   1.294  -0.133   4.085  0.6348  0.1887 -1.0108
   14SAPS  C215 1796   1.241  -0.228   4.262 -0.2429 -0.1404  0.3098
   14SAPS  H15R 1797   1.334  -0.190   4.307  0.2740  0.9821 -1.5990
   14SAPS  C216 1798   1.153  -0.311   4.351  0.7044 -0.7902 -0.2306
   14SAPS  H16R 1799   1.208  -0.405   4.372 -0.7466 -1.5716  0.2612
   14SAPS  H16S 1800   1.064  -0.339   4.290  1.5247  0.9708 -2.3441
   14SAPS  C217 1801   1.092  -0.250   4.484 -0.7013  0.6401 -0.2345
   14SAPS  H17R 1802   1.009  -0.315   4.521 -1.4232  1.2432 -0.7761
   14SAPS  H17S 1803   1.047  -0.151   4.461  0.2568  1.3508  0.8291
   14SAPS  C218 1804   1.207  -0.235   4.589  0.0337  0.1053  0.1211
   14SAPS  H18R 1805   1.269  -0.144   4.574  3.4798 -1.9678  0.7946
   14SAPS  H18S 1806   1.274  -0.322   4.571  1.6199  0.9768  1.5434
   14SAPS  C219 1807   1.165  -0.247   4.734 -0.3772 -0.1612 -0.2274
   14SAPS  H19R 1808   1.256  -0.223   4.793 -0.3267  0.3125 -0.4958
   14SAPS  H19S 1809   1.134  -0.349   4.765  2.0201 -1.6900 -2.4575
   14SAPS  C220 1810   1.060  -0.146   4.782 -0.4733 -0.9529 -0.1864
   14SAPS  H20R 1811   1.043  -0.172   4.889 -0.8256  0.4380  0.1104
   14SAPS  H20S 1812   0.971  -0.148   4.716 -1.2337 -0.5438  0.7979
   14SAPS  H20T 1813   1.115  -0.050   4.790  0.0995 -1.3868  2.0539
   14SAPS   C33 1814   1.796   0.281   3.795 -0.3069  0.4359 -0.6140
   14SAPS   H3X 1815   1.687   0.299   3.788 -0.5647 -1.2881 -1.8353
   14SAPS   H3Y 1816   1.847   0.379   3.798  0.8094 -0.0348 -2.4281
   14SAPS   C34 1817   1.843   0.190   3.912  0.3829 -0.0632 -0.1234
   14SAPS   H4X 1818   1.954   0.184   3.905  0.4204 -0.7965  0.9432
   14SAPS   H4Y 1819   1.794   0.091   3.902 -2.1164  1.1787 -0.8365
   14SAPS   C35 1820   1.818   0.243   4.053  0.2063  0.2011 -0.1906
   14SAPS   H5X 1821   1.710   0.247   4.079 -0.4110 -1.8583 -2.1246
   14SAPS   H5Y 1822   1.850   0.350   4.053 -0.3982  0.4055 -1.3306
   14SAPS   C36 1823   1.890   0.160   4.169 -0.1755  0.3503 -0.5651
   14SAPS   H6X 1824   1.999   0.180   4.156 -0.3976  1.7051 -0.4956
   14SAPS   H6Y 1825   1.869   0.052   4.152 -0.8796  0.5021 -0.6705
   14SAPS   C37 1826   1.845   0.206   4.310 -0.4124 -0.2740 -0.7043
   14SAPS   H7X 1827   1.748   0.157   4.330 -0.3083  0.0468  0.6137
   14SAPS   H7Y 1828   1.846   0.317   4.313  0.0754 -0.1521 -2.9348
   14SAPS   C38 1829   1.934   0.159   4.424  0.6187  0.8670 -1.1323
   14SAPS   H8X 1830   2.034   0.204   4.412  1.3400 -0.1967  0.5339
   14SAPS   H8Y 1831   1.941   0.049   4.436 -0.2586  1.0226  1.4983
   14SAPS   C39 1832   1.883   0.212   4.564 -0.0350  0.3362  0.4441
   14SAPS   H9X 1833   1.774   0.195   4.576 -0.1532  1.2871  0.8204
   14SAPS   H9Y 1834   1.907   0.321   4.561  0.8377  0.1979  1.4610
   14SAPS  C310 1835   1.942   0.158   4.690 -0.1560  0.7862 -0.6276
   14SAPS  H10X 1836   1.877   0.197   4.772 -2.0165  2.8722 -2.9321
   14SAPS  H10Y 1837   2.049   0.179   4.709 -0.0816 -0.3797  0.3768
   14SAPS  C311 1838   1.926   0.009   4.723  0.3011 -0.6972  0.0240
   14SAPS  H11X 1839   2.009  -0.055   4.686  0.7670 -0.3850  0.5174
   14SAPS  H11Y 1840   1.824  -0.018   4.688  0.2323 -0.6301  0.1715
   14SAPS  C312 1841   1.931  -0.030   4.873  0.5944 -0.4805 -0.1472
   14SAPS  H12X 1842   1.890  -0.133   4.882  1.4639 -0.7185  1.3519
   14SAPS  H12Y 1843   1.857   0.035   4.923  2.1531  1.0240  0.2786
   14SAPS  C313 1844   2.074  -0.008   4.936  0.2825  0.0187  1.0527
   14SAPS  H13X 1845   2.076   0.101   4.959  0.6503  0.5835 -1.4105
   14SAPS  H13Y 1846   2.146  -0.022   4.853  0.5885  2.5779  0.7800
   14SAPS  C314 1847   2.099  -0.115   5.045 -0.0149 -0.5648 -0.3146
   14SAPS  H14X 1848   2.180  -0.064   5.101 -1.4577  3.3762 -1.4699
   14SAPS  H14Y 1849   2.138  -0.209   5.001 -0.9577 -0.9129 -0.4167
   14SAPS  C315 1850   1.979  -0.141   5.135 -0.3205 -0.8307  0.5242
   14SAPS  H15X 1851   1.912  -0.202   5.071  0.5251 -0.1470 -1.0437
   14SAPS  H15Y 1852   1.920  -0.054   5.170 -1.2511 -1.3633  0.3170
   14SAPS  C316 1853   2.018  -0.218   5.262 -0.1154  0.0684  0.3289
   14SAPS  H16X 1854   1.927  -0.238   5.324  0.8559 -1.4369  1.3413
   14SAPS  H16Y 1855   2.087  -0.163   5.330  1.6575 -0.6882 -0.8127
   14SAPS  C317 1856   2.103  -0.336   5.234 -0.0338 -0.3100  0.3422
   14SAPS  H17X 1857   2.213  -0.319   5.229  0.1994 -0.3634  3.5313
   14SAPS  H17Y 1858   2.076  -0.383   5.137  0.7785 -0.5225  0.2093
   14SAPS  C318 1859   2.099  -0.437   5.353 -0.6080  0.0120  0.0097
   14SAPS  H18X 1860   2.139  -0.536   5.323  0.8038  0.5747 -0.0375
   14SAPS  H18Y 1861   1.994  -0.462   5.378 -0.0808 -2.8582 -0.2310
   14SAPS  H18Z 1862   2.153  -0.407   5.445  1.0240 -1.4990 -0.3857
   15SAPS     N 1863   5.022   1.473   3.090 -0.2272 -0.3266 -0.0200
   15SAPS   HN1 1864   4.976   1.429   3.172  0.3917  1.3385  1.2670
   15SAPS   HN2 1865   5.003   1.575   3.086  0.9179 -0.1388 -2.2131
   15SAPS   HN3 1866   4.987   1.425   3.004 -0.5499 -1.2901  0.6323
   15SAPS   C12 1867   5.169   1.459   3.099  0.2214  0.2320 -0.6591
   15SAPS  H12A 1868   5.191   1.357   3.128 -2.2394 -0.2682 -0.3588
   15SAPS   C13 1869   5.236   1.486   2.964 -0.5950  0.0058 -0.4070
   15SAPS  O13A 1870   5.168   1.537   2.872 -0.1814  0.5394  0.0227
   15SAPS  O13B 1871   5.361   1.460   2.945  0.1166  0.3142  0.2197
   15SAPS   C11 1872   5.225   1.544   3.214 -0.1795 -0.1325 -0.6480
   15SAPS  H11A 1873   5.198   1.650   3.198  2.0979  0.3169 -1.8300
   15SAPS  H11B 1874   5.335   1.535   3.206  0.0443  2.2247 -0.7915
   15SAPS     P 1875   5.245   1.406   3.440  0.3402 -0.6809 -0.1475
   15SAPS   O13 1876   5.153   1.383   3.557 -0.1643  0.7028  0.3140
   15SAPS   O14 1877   5.304   1.295   3.364  0.3674  0.0900  0.6869
   15SAPS   O12 1878   5.169   1.507   3.345 -0.0104 -0.3964  0.5405
   15SAPS   O11 1879   5.377   1.479   3.500  0.4968  0.4242 -0.0537
   15SAPS    C1 1880   5.432   1.395   3.611  0.6547 -0.1529  0.6204
   15SAPS    HA 1881   5.429   1.470   3.693  0.3142  1.1356 -0.5242
   15SAPS    HB 1882   5.373   1.304   3.632 -0.6308  0.2632 -0.9706
   15SAPS    C2 1883   5.582   1.366   3.579  0.5457  0.4837  0.3664
   15SAPS    HS 1884   5.577   1.258   3.551 -0.2533  0.4366  0.6811
   15SAPS   O21 1885   5.663   1.392   3.700  0.3773  0.0830  0.0711
   15SAPS   C21 1886   5.633   1.310   3.803  0.5250  0.1370  0.6594
   15SAPS   O22 1887   5.545   1.224   3.805 -0.1385 -0.1334 -0.1783
   15SAPS   C22 1888   5.733   1.334   3.911  0.0643 -0.3150  0.7606
   15SAPS   H2R 1889   5.832   1.301   3.874  0.2208 -1.3505  2.0100
   15SAPS   H2S 1890   5.738   1.443   3.930 -0.6908  0.1070 -1.2135
   15SAPS    C3 1891   5.645   1.444   3.462  0.4490 -0.0143 -0.5746
   15SAPS    HX 1892   5.652   1.552   3.485  0.1979 -0.3768  1.3534
   15SAPS    HY 1893   5.582   1.437   3.370  0.6495 -0.2221 -0.6970
   15SAPS   O31 1894   5.777   1.398   3.440  0.2573 -0.0704  0.1777
   15SAPS   C31 1895   5.787   1.288   3.374 -0.6868  0.9082 -0.5008
   15SAPS   O32 1896   5.700   1.204   3.340 -0.0384  0.3594  0.3782
   15SAPS   C32 1897   5.937   1.268   3.362 -0.3983  0.3545 -0.4045
   15SAPS   H2X 1898   5.993   1.359   3.392  1.8560 -0.7972 -0.9131
   15SAPS   H2Y 1899   5.953   1.231   3.259  1.4268 -3.5579  1.0950
   15SAPS   C23 1900   5.706   1.267   4.049  0.0038 -0.3543 -0.2186
   15SAPS   H3R 1901   5.714   1.157   4.035  0.4052 -0.3051 -0.3982
   15SAPS   H3S 1902   5.602   1.301   4.068  0.3178  0.6970 -0.3158
   15SAPS   C24 1903   5.794   1.301   4.167 -0.6281  0.5738 -0.0192
   15SAPS   H4R 1904   5.784   1.411   4.165  2.4668  0.9894  0.7442
   15SAPS   H4S 1905   5.900   1.269   4.154 -1.2155 -1.1287 -0.8538
   15SAPS   C25 1906   5.734   1.257   4.298  0.0235 -0.0640  0.3643
   15SAPS   H5R 1907   5.667   1.171   4.309 -2.9039  2.2697  2.5544
   15SAPS   C26 1908   5.749   1.322   4.412 -1.0204  0.2772 -0.6216
   15SAPS   H6R 1909   5.692   1.284   4.498  0.1743 -2.1942 -0.8153
   15SAPS   C27 1910   5.820   1.452   4.439  0.1050 -0.4961 -0.5836
   15SAPS   H7R 1911   5.830   1.521   4.352  4.0420  0.0541  0.0927
   15SAPS   H7S 1912   5.923   1.429   4.475  0.0937 -1.7316 -1.2940
   15SAPS   C28 1913   5.748   1.522   4.554 -0.3819  0.0439  0.8446
   15SAPS   H8R 1914   5.639   1.527   4.542 -0.1707  3.1479 -0.6026
   15SAPS   C29 1915   5.794   1.603   4.650 -0.5300 -0.3543 -0.0895
   15SAPS   H9R 1916   5.722   1.654   4.715  0.2895  0.8988 -0.1462
   15SAPS  C210 1917   5.941   1.638   4.672 -0.7796  0.4983 -0.1344
   15SAPS  H10R 1918   5.997   1.622   4.578 -0.4778 -0.0036  0.1292
   15SAPS  H10S 1919   5.979   1.569   4.751 -1.3138 -0.7044 -0.8995
   15SAPS  C211 1920   5.961   1.783   4.705 -0.4287  0.0511  0.1073
   15SAPS  H11R 1921   5.940   1.854   4.624  0.3766 -0.5115 -0.6131
   15SAPS  C212 1922   5.953   1.832   4.833  0.2860 -0.0590 -0.2160
   15SAPS  H12R 1923   5.955   1.936   4.867  1.1142  0.2503 -1.1373
   15SAPS  C213 1924   5.973   1.739   4.951 -0.1038 -0.3394 -0.5735
   15SAPS  H13R 1925   6.068   1.681   4.944 -0.5386 -1.2204  0.4233
   15SAPS  H13S 1926   5.910   1.648   4.941  2.5670 -2.3303 -0.6362
   15SAPS  C214 1927   5.959   1.800   5.087 -0.2404 -0.2810 -0.1201
   15SAPS  H14R 1928   5.853   1.802   5.117 -0.2441 -0.5127 -0.1207
   15SAPS  C215 1929   6.055   1.851   5.172  0.9684  0.6872 -0.4326
   15SAPS  H15R 1930   6.028   1.895   5.269  0.9854 -0.7781  0.2696
   15SAPS  C216 1931   6.200   1.862   5.129 -0.6024  0.2602  0.4871
   15SAPS  H16R 1932   6.213   1.829   5.023 -0.7918  1.5683  0.0325
   15SAPS  H16S 1933   6.265   1.797   5.191  1.8145 -0.7042 -2.7576
   15SAPS  C217 1934   6.253   2.008   5.145  0.2181 -0.2713  0.6881
   15SAPS  H17R 1935   6.196   2.071   5.074  1.1669 -1.4767 -1.2525
   15SAPS  H17S 1936   6.356   2.000   5.104  0.3138  1.6690  0.4602
   15SAPS  C218 1937   6.258   2.063   5.286  0.3172  0.0756 -0.6010
   15SAPS  H18R 1938   6.167   2.026   5.337  0.1822 -2.0996 -2.2681
   15SAPS  H18S 1939   6.249   2.174   5.284  0.1772  0.0993  0.5638
   15SAPS  C219 1940   6.383   2.028   5.365 -0.3554 -0.4266  0.3042
   15SAPS  H19R 1941   6.383   1.919   5.389  1.6163 -0.7578 -0.9191
   15SAPS  H19S 1942   6.381   2.075   5.465 -2.9553 -2.6439  1.4011
   15SAPS  C220 1943   6.521   2.068   5.311 -0.0170 -0.9369  0.5605
   15SAPS  H20R 1944   6.543   2.016   5.215  1.7919  1.0716 -0.1891
   15SAPS  H20S 1945   6.602   2.060   5.386  3.1288  2.0772 -2.1419
   15SAPS  H20T 1946   6.518   2.176   5.284 -0.5609 -0.7077  1.5046
   15SAPS   C33 1947   5.989   1.155   3.450 -1.1582  0.4471  0.3509
   15SAPS   H3X 1948   6.098   1.134   3.438 -1.2266  0.4961 -0.3952
   15SAPS   H3Y 1949   5.946   1.061   3.408  2.1438 -1.1618  0.2245
   15SAPS   C34 1950   5.955   1.165   3.601  0.1844  0.6716  0.4452
   15SAPS   H4X 1951   5.847   1.192   3.598 -0.6483 -2.0759  1.7367
   15SAPS   H4Y 1952   6.012   1.249   3.644  1.1341  0.2622  0.0128
   15SAPS   C35 1953   5.972   1.032   3.670  0.0683 -0.3050  0.6826
   15SAPS   H5X 1954   6.082   1.015   3.677  0.2871  0.8019  0.2542
   15SAPS   H5Y 1955   5.939   0.947   3.607  0.7577  1.4981 -2.3470
   15SAPS   C36 1956   5.900   1.037   3.805 -0.2376 -0.2783 -0.0483
   15SAPS   H6X 1957   5.796   1.075   3.801 -1.4829 -3.0581  2.1288
   15SAPS   H6Y 1958   5.956   1.103   3.875 -0.4238  0.8778 -0.9764
   15SAPS   C37 1959   5.886   0.898   3.853  0.7124  0.1239 -0.2133
   15SAPS   H7X 1960   5.990   0.857   3.858  1.5833  2.3700  1.1955
   15SAPS   H7Y 1961   5.838   0.837   3.773 -1.7324  1.7458 -0.0768
   15SAPS   C38 1962   5.814   0.885   3.994  0.0857  0.9864 -0.1306
   15SAPS   H8X 1963   5.807   0.774   3.996  0.2941  0.9473 -1.0846
   15SAPS   H8Y 1964   5.716   0.934   4.012  0.9287  2.4868  0.5767
   15SAPS   C39 1965   5.912   0.911   4.107 -0.2628  0.3929 -0.1758
   15SAPS   H9X 1966   5.940   1.019   4.100  3.7012 -0.4952 -0.8079
   15SAPS   H9Y 1967   6.004   0.853   4.083 -0.9311 -0.2431 -1.2628
   15SAPS  C310 1968   5.863   0.887   4.247  0.3724  0.7940  0.3357
   15SAPS  H10X 1969   5.842   0.779   4.264 -0.6679  1.0767  0.9652
   15SAPS  H10Y 1970   5.766   0.941   4.251 -1.9383 -2.5827 -2.9687
   15SAPS  C311 1971   5.962   0.932   4.354 -0.3341 -0.3080 -0.8798
   15SAPS  H11X 1972   5.997   1.035   4.330 -1.5548  1.1677  2.9089
   15SAPS  H11Y 1973   6.050   0.865   4.356 -0.2159 -0.2111 -1.9585
   15SAPS  C312 1974   5.897   0.944   4.501 -0.5035  1.4112  0.6847
   15SAPS  H12X 1975   5.874   0.844   4.542  1.0473 -0.4824 -2.6600
   15SAPS  H12Y 1976   5.800   0.998   4.505 -0.4901  1.4825  0.1466
   15SAPS  C313 1977   5.990   1.019   4.606  0.4930  0.1609 -0.8341
   15SAPS  H13X 1978   5.994   1.125   4.571 -0.9819  0.7309  0.5498
   15SAPS  H13Y 1979   6.091   0.974   4.603 -0.4802 -2.1493 -2.9911
   15SAPS  C314 1980   5.942   1.030   4.747 -0.5860 -0.6687 -0.7171
   15SAPS  H14X 1981   6.006   1.108   4.793  0.7578 -0.4136 -2.8820
   15SAPS  H14Y 1982   5.946   0.943   4.816  0.7919 -1.1083 -1.3224
   15SAPS  C315 1983   5.795   1.073   4.760  0.2431  0.7374 -0.3619
   15SAPS  H15X 1984   5.725   0.991   4.787 -0.0722  1.4092  0.9662
   15SAPS  H15Y 1985   5.759   1.121   4.667 -0.0880 -1.4949 -1.4547
   15SAPS  C316 1986   5.766   1.171   4.876 -0.4637 -1.1073 -0.2000
   15SAPS  H16X 1987   5.856   1.197   4.935 -0.1066  1.9090 -1.8541
   15SAPS  H16Y 1988   5.691   1.121   4.941 -0.4175 -0.6275  0.2269
   15SAPS  C317 1989   5.728   1.306   4.830 -0.2996 -0.2736 -0.2754
   15SAPS  H17X 1990   5.664   1.301   4.739  0.8842 -0.8843 -1.0862
   15SAPS  H17Y 1991   5.817   1.368   4.805 -0.4948 -0.2576 -0.9496
   15SAPS  C318 1992   5.651   1.387   4.936  0.1140  0.3537 -0.2567
   15SAPS  H18X 1993   5.546   1.349   4.932  0.0077  0.6781 -0.6087
   15SAPS  H18Y 1994   5.637   1.493   4.905 -1.4016  1.5586  3.8778
   15SAPS  H18Z 1995   5.700   1.377   5.035 -0.0296  1.5332 -0.0456
   16SAPS     N 1996   6.762   2.111   3.130  0.6450  0.6124 -0.0653
   16SAPS   HN1 1997   6.774   2.164   3.218  2.2861  0.7699 -0.3593
   16SAPS   HN2 1998   6.684   2.042   3.136 -0.0848  1.5104  1.2954
   16SAPS   HN3 1999   6.847   2.054   3.110  0.7699  1.1297 -1.0925
   16SAPS   C12 2000   6.739   2.200   3.019 -0.7701 -0.5975  0.6537
   16SAPS  H12A 2001   6.827   2.260   3.003 -2.5233  2.1590  0.5892
   16SAPS   C13 2002   6.686   2.137   2.891  0.0347  0.2766 -0.6907
   16SAPS  O13A 2003   6.673   2.009   2.887  0.1123  0.8644 -0.3171
   16SAPS  O13B 2004   6.668   2.205   2.789  0.5913  0.0038  0.1861
   16SAPS   C11 2005   6.649   2.318   3.069  0.4826 -0.0317  0.4620
   16SAPS  H11A 2006   6.547   2.278   3.087  0.8854 -1.1276  0.3926
   16SAPS  H11B 2007   6.643   2.391   2.986 -0.9815 -1.8496 -1.1266
   16SAPS     P 2008   6.753   2.515   3.211  0.1340 -0.5322 -0.1766
   16SAPS   O13 2009   6.902   2.504   3.181 -0.7185 -0.0501 -0.2230
   16SAPS   O14 2010   6.677   2.613   3.127 -0.5913  0.2155  0.1006
   16SAPS   O12 2011   6.699   2.367   3.187 -0.0368 -0.0402 -0.3321
   16SAPS   O11 2012   6.737   2.548   3.372  0.2469 -0.2467 -0.0711
   16SAPS    C1 2013   6.830   2.498   3.467 -0.7580 -0.7931 -0.4908
   16SAPS    HA 2014   6.901   2.422   3.427 -0.1019 -0.3057 -0.2874
   16SAPS    HB 2015   6.898   2.578   3.503 -1.2458 -1.4875  2.1885
   16SAPS    C2 2016   6.763   2.432   3.587 -0.7591 -0.0965  0.0435
   16SAPS    HS 2017   6.700   2.354   3.539  0.8690 -1.2364 -0.3207
   16SAPS   O21 2018   6.690   2.549   3.641  0.4749 -0.0518  0.3654
   16SAPS   C21 2019   6.604   2.512   3.740  0.0248 -0.3879  0.2767
   16SAPS   O22 2020   6.566   2.400   3.770  0.0671 -0.6814 -0.1446
   16SAPS   C22 2021   6.555   2.636   3.815 -1.1646 -0.6626  0.4084
   16SAPS   H2R 2022   6.524   2.725   3.755 -2.6215 -1.4560 -0.0417
   16SAPS   H2S 2023   6.465   2.609   3.873 -1.5992  3.4673  2.0359
   16SAPS    C3 2024   6.862   2.371   3.688  0.1012  0.0136 -0.0963
   16SAPS    HX 2025   6.925   2.291   3.644  0.1043  0.9020 -1.7907
   16SAPS    HY 2026   6.807   2.320   3.770 -1.5099 -0.7458 -1.5913
   16SAPS   O31 2027   6.945   2.474   3.746  0.4174 -0.1527 -0.4019
   16SAPS   C31 2028   7.075   2.457   3.730 -0.5265 -0.6591  0.2652
   16SAPS   O32 2029   7.134   2.358   3.691 -0.2383 -0.9262  0.3800
   16SAPS   C32 2030   7.134   2.597   3.762  0.3204 -0.1498  0.3716
   16SAPS   H2X 2031   7.064   2.670   3.716  2.1518  0.9906 -0.7950
   16SAPS   H2Y 2032   7.227   2.611   3.703 -0.6288  1.6321 -0.8035
   16SAPS   C23 2033   6.656   2.669   3.925  0.2856 -0.7205  0.4744
   16SAPS   H3R 2034   6.709   2.585   3.975 -0.2388  0.0819  2.4514
   16SAPS   H3S 2035   6.588   2.720   3.996 -1.4938  0.9576 -2.2274
   16SAPS   C24 2036   6.759   2.773   3.880 -0.4211  0.0378  0.2324
   16SAPS   H4R 2037   6.797   2.730   3.785  0.3499 -0.5286  0.7849
   16SAPS   H4S 2038   6.848   2.763   3.945  0.8720  3.8245 -0.7159
   16SAPS   C25 2039   6.721   2.923   3.866 -0.3774 -0.7781 -0.2379
   16SAPS   H5R 2040   6.657   2.953   3.782  1.2422 -0.4784 -1.4054
   16SAPS   C26 2041   6.771   3.019   3.945 -0.7367  0.6017 -0.1978
   16SAPS   H6R 2042   6.741   3.123   3.921  0.5718  1.0940  0.2077
   16SAPS   C27 2043   6.864   2.999   4.065  0.1923  0.5676  0.6480
   16SAPS   H7R 2044   6.909   3.096   4.094 -0.9202  0.9905  1.0049
   16SAPS   H7S 2045   6.952   2.944   4.026  0.9024  2.5268 -0.6658
   16SAPS   C28 2046   6.810   2.926   4.182 -0.3544 -0.2617 -0.7184
   16SAPS   H8R 2047   6.757   2.834   4.152  0.3186 -0.7373 -0.4635
   16SAPS   C29 2048   6.832   2.958   4.311  0.1908  0.9276 -0.6250
   16SAPS   H9R 2049   6.789   2.882   4.378  1.1333 -1.1565 -2.2623
   16SAPS  C210 2050   6.908   3.077   4.369  0.4010  0.0718 -0.1725
   16SAPS  H10R 2051   6.944   3.135   4.281  0.1025 -0.1744 -0.4592
   16SAPS  H10S 2052   7.002   3.051   4.422 -1.2038 -0.4706  2.6425
   16SAPS  C211 2053   6.825   3.169   4.452  0.4951 -0.0728 -0.3578
   16SAPS  H11R 2054   6.767   3.243   4.395  0.0830  1.8980  2.4404
   16SAPS  C212 2055   6.826   3.177   4.593  0.1538  0.1221  0.1530
   16SAPS  H12R 2056   6.774   3.257   4.647 -0.1842 -0.4100  0.6232
   16SAPS  C213 2057   6.892   3.075   4.688  0.1483  0.1384  0.1077
   16SAPS  H13R 2058   7.001   3.097   4.686 -0.0966  1.5737 -3.1791
   16SAPS  H13S 2059   6.883   2.970   4.653 -3.8812  1.1092 -2.4097
   16SAPS  C214 2060   6.829   3.067   4.825  0.0569 -0.4461  0.5516
   16SAPS  H14R 2061   6.721   3.048   4.825 -0.3152  1.3516 -0.3640
   16SAPS  C215 2062   6.889   3.088   4.944 -0.5678  0.5744  0.1467
   16SAPS  H15R 2063   6.827   3.091   5.035 -0.0970 -2.1609  0.6548
   16SAPS  C216 2064   7.034   3.107   4.971  1.1977 -0.1406 -0.3764
   16SAPS  H16R 2065   7.062   3.209   5.005  2.7323 -0.3992 -0.7782
   16SAPS  H16S 2066   7.096   3.092   4.881  1.4903 -0.1296 -0.1786
   16SAPS  C217 2067   7.087   3.012   5.078 -0.1470 -0.1791 -0.2414
   16SAPS  H17R 2068   7.198   3.011   5.075 -0.0766  0.5273  1.2112
   16SAPS  H17S 2069   7.055   2.910   5.048 -1.8340  0.6162 -1.2613
   16SAPS  C218 2070   7.040   3.043   5.224 -0.5724 -0.3528  0.6088
   16SAPS  H18R 2071   6.943   2.989   5.220 -0.2133 -0.9808 -1.8983
   16SAPS  H18S 2072   7.036   3.153   5.240 -0.5595 -0.3926  0.8783
   16SAPS  C219 2073   7.135   2.987   5.333  0.1349 -0.3278  0.0654
   16SAPS  H19R 2074   7.127   2.876   5.329 -2.0864 -0.1989 -0.5737
   16SAPS  H19S 2075   7.095   3.019   5.432 -1.4413  0.7851 -0.8823
   16SAPS  C220 2076   7.283   3.021   5.320 -0.0141  0.1867 -0.0105
   16SAPS  H20R 2077   7.320   2.958   5.236 -1.2950 -1.6270  0.7116
   16SAPS  H20S 2078   7.345   2.992   5.408 -0.7892 -1.2649  0.0956
   16SAPS  H20T 2079   7.302   3.128   5.300 -0.0087 -0.0022 -1.0699
   16SAPS   C33 2080   7.151   2.629   3.910 -0.0350  0.2478 -0.0437
   16SAPS   H3X 2081   7.187   2.543   3.969 -0.2925  1.6428  2.2692
   16SAPS   H3Y 2082   7.059   2.665   3.960 -1.0325  0.2139 -1.8004
   16SAPS   C34 2083   7.244   2.755   3.918 -0.3566  0.3088  0.3092
   16SAPS   H4X 2084   7.216   2.830   3.840 -0.6916  0.1987  0.3217
   16SAPS   H4Y 2085   7.346   2.719   3.894  0.1523  2.2667 -0.6386
   16SAPS   C35 2086   7.256   2.827   4.053  0.9802  0.1573  0.3529
   16SAPS   H5X 2087   7.159   2.866   4.089  0.9767  0.9945 -0.5305
   16SAPS   H5Y 2088   7.321   2.917   4.047 -0.7851  1.4347 -0.0260
   16SAPS   C36 2089   7.311   2.744   4.169 -0.8292  0.0388 -1.1227
   16SAPS   H6X 2090   7.410   2.712   4.129 -1.0225 -1.6187 -0.3469
   16SAPS   H6Y 2091   7.242   2.657   4.182 -0.7246 -0.3344 -2.7486
   16SAPS   C37 2092   7.336   2.821   4.294  0.4307  0.2780 -0.3446
   16SAPS   H7X 2093   7.353   2.929   4.271  0.1448  0.1931 -0.9940
   16SAPS   H7Y 2094   7.423   2.783   4.352 -1.6319 -0.4356  2.4444
   16SAPS   C38 2095   7.213   2.818   4.385  0.3353 -0.2723 -1.1476
   16SAPS   H8X 2096   7.182   2.712   4.401 -2.1281  0.3943 -1.1644
   16SAPS   H8Y 2097   7.127   2.865   4.333  0.3869 -0.8586 -1.7861
   16SAPS   C39 2098   7.227   2.877   4.524  0.6796 -0.2772 -0.4064
   16SAPS   H9X 2099   7.132   2.882   4.580 -0.0478  2.9150 -1.7410
   16SAPS   H9Y 2100   7.253   2.984   4.517 -1.3586  0.1527 -2.6825
   16SAPS  C310 2101   7.321   2.788   4.605  0.5056 -0.2409 -0.3826
   16SAPS  H10X 2102   7.423   2.792   4.562  1.5583 -1.4673  1.8333
   16SAPS  H10Y 2103   7.283   2.684   4.597  0.3927 -0.2126 -0.2236
   16SAPS  C311 2104   7.312   2.842   4.755 -0.3314  0.1275  0.6020
   16SAPS  H11X 2105   7.205   2.862   4.776 -0.1049  0.9296  1.0236
   16SAPS  H11Y 2106   7.374   2.934   4.750  1.8258 -1.2445 -4.2370
   16SAPS  C312 2107   7.370   2.743   4.859 -0.4161 -0.4041 -0.1968
   16SAPS  H12X 2108   7.352   2.794   4.956 -0.5114 -1.0792  0.1443
   16SAPS  H12Y 2109   7.480   2.745   4.841 -0.6126  3.5459 -1.8102
   16SAPS  C313 2110   7.298   2.609   4.870 -0.1035 -0.3145 -0.6153
   16SAPS  H13X 2111   7.322   2.535   4.790 -3.8849 -1.6070 -0.7764
   16SAPS  H13Y 2112   7.190   2.631   4.853 -0.0365  0.3488 -0.2106
   16SAPS  C314 2113   7.308   2.543   5.004  0.1668 -0.0839 -0.2586
   16SAPS  H14X 2114   7.283   2.616   5.084  1.1794 -0.9617  0.8994
   16SAPS  H14Y 2115   7.415   2.513   5.011  0.5547  1.1658 -0.5160
   16SAPS  C315 2116   7.213   2.418   5.015 -0.6048  0.0683  0.2347
   16SAPS  H15X 2117   7.243   2.351   4.930 -0.5297  2.1126 -1.4193
   16SAPS  H15Y 2118   7.106   2.445   5.011 -0.1097  2.2072  0.1177
   16SAPS  C316 2119   7.231   2.336   5.147  0.3702 -0.0962 -0.2611
   16SAPS  H16X 2120   7.148   2.263   5.157 -0.2740  0.6547 -0.0150
   16SAPS  H16Y 2121   7.226   2.407   5.232 -0.7432 -1.6599  1.0495
   16SAPS  C317 2122   7.359   2.258   5.160  0.1126  0.0245 -0.0040
   16SAPS  H17X 2123   7.441   2.333   5.151 -1.2926  1.9345  2.0769
   16SAPS  H17Y 2124   7.367   2.184   5.078  2.8148  2.7440 -2.4623
   16SAPS  C318 2125   7.361   2.188   5.294  0.5879 -0.0527  0.1741
   16SAPS  H18X 2126   7.344   2.256   5.380  2.3734  1.2893 -0.4838
   16SAPS  H18Y 2127   7.452   2.124   5.302  0.8795  0.2929 -0.3452
   16SAPS  H18Z 2128   7.279   2.113   5.284  1.1890 -1.0887  2.3561
   17SAPS     N 2129   5.466   1.200   2.883 -0.0066  0.3680 -0.1463
   17SAPS   HN1 2130   5.456   1.239   2.979 -1.2592 -0.2250 -0.0193
   17SAPS   HN2 2131   5.449   1.275   2.813 -2.8242 -1.4697 -1.6133
   17SAPS   HN3 2132   5.386   1.135   2.874 -0.3534  0.6407  0.8318
   17SAPS   C12 2133   5.602   1.127   2.870  0.3073 -0.4872  0.5323
   17SAPS  H12A 2134   5.599   1.068   2.779 -3.0196  0.5302 -0.1823
   17SAPS   C13 2135   5.724   1.225   2.859 -0.6011  0.1225 -0.4519
   17SAPS  O13A 2136   5.697   1.346   2.866  0.2206  0.1800 -0.4478
   17SAPS  O13B 2137   5.847   1.186   2.858  0.5033  0.0767 -0.2170
   17SAPS   C11 2138   5.630   1.038   2.990  0.7146 -0.3393  0.7760
   17SAPS  H11A 2139   5.640   1.093   3.087 -2.1220  0.9722  0.4470
   17SAPS  H11B 2140   5.724   0.984   2.968  1.3752  0.8472  0.5672
   17SAPS     P 2141   5.547   0.793   3.031 -0.4972  0.0118  0.1854
   17SAPS   O13 2142   5.411   0.730   3.030  1.4196  0.6615 -0.0755
   17SAPS   O14 2143   5.640   0.754   2.925 -0.5550  1.0979  0.3768
   17SAPS   O12 2144   5.524   0.947   3.007  0.0899  0.2085 -0.3832
   17SAPS   O11 2145   5.628   0.783   3.168  0.3707  0.4655  0.4824
   17SAPS    C1 2146   5.680   0.647   3.190  0.2161 -0.7957 -0.4039
   17SAPS    HA 2147   5.601   0.575   3.221  0.6216 -0.4867  1.4800
   17SAPS    HB 2148   5.736   0.607   3.103 -0.7876 -2.4403 -0.3336
   17SAPS    C2 2149   5.788   0.662   3.300  0.0194  0.0018 -0.5416
   17SAPS    HS 2150   5.835   0.562   3.291  1.1362  0.1939  2.1134
   17SAPS   O21 2151   5.727   0.695   3.425 -0.3999  0.7203 -0.2107
   17SAPS   C21 2152   5.662   0.593   3.480 -0.4045  0.1042 -0.9100
   17SAPS   O22 2153   5.660   0.480   3.435  0.1300 -0.0053 -0.1143
   17SAPS   C22 2154   5.583   0.628   3.601 -0.7664 -0.2192  1.0645
   17SAPS   H2R 2155   5.536   0.729   3.595 -0.6862 -0.1454  1.6139
   17SAPS   H2S 2156   5.506   0.548   3.610 -0.7505 -0.4002 -0.2648
   17SAPS    C3 2157   5.898   0.775   3.270 -0.2221 -0.0146  0.1793
   17SAPS    HX 2158   5.864   0.870   3.316 -0.9726 -0.5009  0.6536
   17SAPS    HY 2159   5.892   0.783   3.159 -1.3522  1.5269  0.3259
   17SAPS   O31 2160   6.026   0.732   3.315  0.1113 -0.1564 -0.3193
   17SAPS   C31 2161   6.124   0.817   3.293  0.4435 -0.5964 -0.8604
   17SAPS   O32 2162   6.108   0.931   3.248  0.0461 -0.1966 -0.1385
   17SAPS   C32 2163   6.259   0.767   3.343 -0.0270 -1.0539  0.5071
   17SAPS   H2X 2164   6.330   0.785   3.259 -1.2290  0.1587 -0.2928
   17SAPS   H2Y 2165   6.250   0.661   3.374  1.0201 -0.1275  4.5162
   17SAPS   C23 2166   5.683   0.620   3.718  0.1971  0.3551  0.2197
   17SAPS   H3R 2167   5.650   0.677   3.808  1.1519  1.6591 -0.2294
   17SAPS   H3S 2168   5.777   0.668   3.684  0.0720  1.4501  1.3343
   17SAPS   C24 2169   5.704   0.467   3.755  0.0742  0.2114 -0.1177
   17SAPS   H4R 2170   5.713   0.404   3.664 -1.9471  1.5286 -1.3364
   17SAPS   H4S 2171   5.605   0.448   3.801 -0.4898  0.9579 -0.9739
   17SAPS   C25 2172   5.824   0.442   3.845  0.2662 -0.0454 -0.0126
   17SAPS   H5R 2173   5.922   0.471   3.804  1.6754 -3.8258  0.2757
   17SAPS   C26 2174   5.826   0.411   3.977  0.6297 -0.4217  0.5043
   17SAPS   H6R 2175   5.922   0.410   4.031 -0.1679  0.1836  1.9690
   17SAPS   C27 2176   5.709   0.382   4.067  0.5919 -0.6294  0.2006
   17SAPS   H7R 2177   5.732   0.294   4.131  0.5056  1.3844  3.1636
   17SAPS   H7S 2178   5.620   0.356   4.006 -0.7693 -0.3534  2.0022
   17SAPS   C28 2179   5.674   0.495   4.149  0.2969  0.2085 -0.9426
   17SAPS   H8R 2180   5.581   0.543   4.114 -0.9000 -0.7788  0.7402
   17SAPS   C29 2181   5.732   0.532   4.263 -0.0311 -0.0544  0.3348
   17SAPS   H9R 2182   5.685   0.610   4.325  0.9422  1.8658 -1.2157
   17SAPS  C210 2183   5.838   0.452   4.329  0.1426 -0.1613  0.3503
   17SAPS  H10R 2184   5.891   0.384   4.258 -2.0482 -0.6101 -0.9433
   17SAPS  H10S 2185   5.793   0.384   4.404 -0.3435 -1.4341 -1.0343
   17SAPS  C211 2186   5.938   0.535   4.409  1.0703  0.2731 -0.1783
   17SAPS  H11R 2187   6.020   0.573   4.347 -0.1498  1.0933 -1.3479
   17SAPS  C212 2188   5.964   0.551   4.543  0.9820 -0.1161  0.1565
   17SAPS  H12R 2189   6.043   0.622   4.571  0.9337  0.5185 -1.2310
   17SAPS  C213 2190   5.886   0.486   4.660  0.2490 -0.4753  0.5470
   17SAPS  H13R 2191   5.968   0.455   4.729 -0.0782  1.4437  1.8546
   17SAPS  H13S 2192   5.831   0.393   4.634 -0.2449  0.1767 -0.7772
   17SAPS  C214 2193   5.791   0.590   4.722  0.3086 -0.2934  0.4169
   17SAPS  H14R 2194   5.771   0.675   4.655 -1.6757 -2.3414 -1.7698
   17SAPS  C215 2195   5.758   0.597   4.853  0.2580  0.2081  0.8684
   17SAPS  H15R 2196   5.695   0.679   4.893 -0.9438 -0.1877 -0.1468
   17SAPS  C216 2197   5.782   0.487   4.954 -0.0979 -0.2278 -0.7689
   17SAPS  H16R 2198   5.854   0.535   5.024  1.1493  3.2094 -4.0178
   17SAPS  H16S 2199   5.828   0.398   4.907 -0.0042 -1.2808  1.2277
   17SAPS  C217 2200   5.654   0.426   5.013 -0.6574  0.0524  0.3834
   17SAPS  H17R 2201   5.665   0.347   5.090 -0.3806 -0.1624  0.1267
   17SAPS  H17S 2202   5.588   0.382   4.935  1.2745 -1.1885 -0.6308
   17SAPS  C218 2203   5.581   0.525   5.112 -0.0233  0.0303  0.6444
   17SAPS  H18R 2204   5.562   0.624   5.066  0.3355 -0.3853 -0.4440
   17SAPS  H18S 2205   5.646   0.539   5.201 -0.6519 -0.3543  1.1738
   17SAPS  C219 2206   5.442   0.477   5.160  0.8237  0.0234  0.1928
   17SAPS  H19R 2207   5.398   0.541   5.240 -1.3780  1.7986 -2.2723
   17SAPS  H19S 2208   5.457   0.374   5.199 -0.5169 -0.5857 -0.8116
   17SAPS  C220 2209   5.330   0.482   5.051  0.1199  0.3260  0.2810
   17SAPS  H20R 2210   5.299   0.580   5.009 -0.2042  0.9019  1.8079
   17SAPS  H20S 2211   5.235   0.439   5.090  0.1400 -1.0754 -1.1015
   17SAPS  H20T 2212   5.368   0.420   4.967 -0.6935  2.5715 -1.8726
   17SAPS   C33 2213   6.296   0.843   3.473  0.3632  0.0734 -0.1484
   17SAPS   H3X 2214   6.201   0.850   3.530  1.0539  0.3559  0.9908
   17SAPS   H3Y 2215   6.327   0.941   3.432  0.2310 -0.2327 -1.0024
   17SAPS   C34 2216   6.391   0.763   3.556 -0.1678  0.6269  0.4343
   17SAPS   H4X 2217   6.457   0.819   3.626  0.6191  0.8945 -0.4991
   17SAPS   H4Y 2218   6.460   0.711   3.486  0.6032 -1.0078  2.2929
   17SAPS   C35 2219   6.326   0.655   3.646 -0.0490  0.2122 -0.4858
   17SAPS   H5X 2220   6.397   0.575   3.677 -0.8640 -0.9576 -1.5370
   17SAPS   H5Y 2221   6.264   0.592   3.577 -0.0238  1.0593 -1.2968
   17SAPS   C36 2222   6.255   0.706   3.774 -0.1594 -0.1291  0.2465
   17SAPS   H6X 2223   6.199   0.616   3.806 -1.9375  0.1630 -1.7582
   17SAPS   H6Y 2224   6.185   0.789   3.750  0.2132 -0.0782 -0.7216
   17SAPS   C37 2225   6.361   0.752   3.879  0.3784  0.4499 -0.1145
   17SAPS   H7X 2226   6.397   0.847   3.835 -0.7246  1.0737  0.2945
   17SAPS   H7Y 2227   6.444   0.678   3.882  0.3110  0.0558 -3.8096
   17SAPS   C38 2228   6.294   0.797   4.017  0.0801  0.5996  0.2087
   17SAPS   H8X 2229   6.229   0.708   4.030  0.5064  0.3798  0.8868
   17SAPS   H8Y 2230   6.245   0.896   4.009  0.5171  0.8684  0.8103
   17SAPS   C39 2231   6.394   0.797   4.132  0.2088  0.0593 -1.0038
   17SAPS   H9X 2232   6.463   0.884   4.136  0.2657 -0.0155  2.7011
   17SAPS   H9Y 2233   6.446   0.699   4.134 -2.0578 -1.1959  0.1244
   17SAPS  C310 2234   6.331   0.794   4.272  0.0619  0.5257 -0.1429
   17SAPS  H10X 2235   6.258   0.712   4.253  2.9481 -1.7084 -2.4973
   17SAPS  H10Y 2236   6.286   0.890   4.304 -0.0997  0.1155  0.9266
   17SAPS  C311 2237   6.414   0.738   4.383 -0.2077 -0.7523 -0.1742
   17SAPS  H11X 2238   6.519   0.770   4.368 -0.0872 -1.7231 -1.5868
   17SAPS  H11Y 2239   6.424   0.628   4.368  1.4932 -0.4897 -1.3223
   17SAPS  C312 2240   6.355   0.761   4.524 -0.1428 -0.1322 -0.1795
   17SAPS  H12X 2241   6.249   0.727   4.533  0.7331 -3.0327  0.3319
   17SAPS  H12Y 2242   6.347   0.871   4.540 -0.1772 -0.4096  2.1926
   17SAPS  C313 2243   6.439   0.699   4.643  0.1241 -0.1489  0.0530
   17SAPS  H13X 2244   6.547   0.722   4.631  1.8860 -5.8503  1.6457
   17SAPS  H13Y 2245   6.438   0.588   4.639  1.0575 -0.1193 -2.5438
   17SAPS  C314 2246   6.399   0.753   4.783  0.1773 -0.6559 -0.9863
   17SAPS  H14X 2247   6.422   0.862   4.789  0.8304 -0.8232 -0.1311
   17SAPS  H14Y 2248   6.461   0.711   4.866 -0.8118 -0.4724 -0.1344
   17SAPS  C315 2249   6.253   0.729   4.812 -0.8808 -0.2966  0.9888
   17SAPS  H15X 2250   6.187   0.776   4.736  0.7846  1.5568  0.6383
   17SAPS  H15Y 2251   6.237   0.791   4.903  0.3922  2.2066 -0.3855
   17SAPS  C316 2252   6.228   0.572   4.821  0.1852  0.1315 -0.2579
   17SAPS  H16X 2253   6.326   0.520   4.823  0.6820  1.0846  0.9041
   17SAPS  H16Y 2254   6.175   0.536   4.730  1.3452  2.5063 -1.9920
   17SAPS  C317 2255   6.133   0.537   4.933 -0.3636 -0.5831  0.2331
   17SAPS  H17X 2256   6.084   0.439   4.915  1.7499 -1.4421 -1.2413
   17SAPS  H17Y 2257   6.058   0.619   4.932 -3.6385 -3.2845 -2.5187
   17SAPS  C318 2258   6.207   0.528   5.070  0.7321 -0.2525  0.6034
   17SAPS  H18X 2259   6.134   0.502   5.150  0.0695  1.9044  0.7546
   17SAPS  H18Y 2260   6.264   0.620   5.094 -0.1274  0.3759  0.2831
   17SAPS  H18Z 2261   6.282   0.446   5.063 -0.5457 -1.3899 -0.3155
   18SAPS     N 2262   1.040   4.413   2.986 -0.1010  0.1279 -0.0601
   18SAPS   HN1 2263   0.980   4.336   3.021  1.3020 -1.4566 -0.9689
   18SAPS   HN2 2264   1.128   4.421   3.041 -1.5511  1.4829  2.2126
   18SAPS   HN3 2265   0.985   4.502   2.981 -2.1702 -1.1111 -3.8070
   18SAPS   C12 2266   1.071   4.378   2.845  0.5622 -0.5425  0.6186
   18SAPS  H12A 2267   1.137   4.454   2.804 -0.3262 -0.5849 -0.9479
   18SAPS   C13 2268   1.139   4.246   2.834 -0.1568 -0.0051 -0.4090
   18SAPS  O13A 2269   1.150   4.173   2.938  0.2135 -0.5493 -0.3884
   18SAPS  O13B 2270   1.175   4.196   2.730 -0.5968 -0.1843  0.0735
   18SAPS   C11 2271   0.937   4.363   2.767  0.2479 -0.3087  0.4700
   18SAPS  H11A 2272   0.883   4.273   2.804 -1.1033  1.0882  2.0448
   18SAPS  H11B 2273   0.959   4.348   2.659 -0.6343  0.3338  0.1854
   18SAPS     P 2274   0.752   4.522   2.676  0.1406  0.3006 -0.1565
   18SAPS   O13 2275   0.817   4.624   2.597 -0.2071 -0.5004 -0.1029
   18SAPS   O14 2276   0.715   4.393   2.603  0.2405 -0.1007 -0.1933
   18SAPS   O12 2277   0.851   4.471   2.785  0.6095  0.0711  0.2822
   18SAPS   O11 2278   0.624   4.578   2.756 -0.6627 -0.4819  0.8271
   18SAPS    C1 2279   0.622   4.590   2.894 -0.8102 -0.4620 -0.3743
   18SAPS    HA 2280   0.516   4.588   2.930 -1.4775  1.3567 -2.0163
   18SAPS    HB 2281   0.674   4.509   2.948  0.7449 -0.5347 -1.8950
   18SAPS    C2 2282   0.675   4.733   2.935  0.5285 -0.0135  0.9445
   18SAPS    HS 2283   0.777   4.754   2.895  1.0206 -4.1228 -0.5032
   18SAPS   O21 2284   0.687   4.739   3.083  0.0306 -0.4297 -0.4458
   18SAPS   C21 2285   0.770   4.648   3.134 -0.5181 -0.4127  0.3869
   18SAPS   O22 2286   0.860   4.590   3.072 -0.0754  0.0974 -0.1894
   18SAPS   C22 2287   0.744   4.630   3.283  0.2912 -0.0838 -0.6257
   18SAPS   H2R 2288   0.771   4.727   3.332 -2.2866  0.3196  0.1758
   18SAPS   H2S 2289   0.634   4.629   3.299  0.1789  2.3795 -0.8358
   18SAPS    C3 2290   0.574   4.840   2.879 -0.2133  0.2780  0.1155
   18SAPS    HX 2291   0.478   4.825   2.933  0.6068 -1.6209  1.1113
   18SAPS    HY 2292   0.561   4.816   2.771  2.0823 -0.4463 -0.0533
   18SAPS   O31 2293   0.626   4.972   2.882 -0.1947 -0.1938 -0.1221
   18SAPS   C31 2294   0.579   5.051   2.976  0.5884 -0.3072  0.2529
   18SAPS   O32 2295   0.492   5.025   3.062 -0.2574  0.5286 -0.3777
   18SAPS   C32 2296   0.658   5.190   2.959  0.2937  0.2262  0.9798
   18SAPS   H2X 2297   0.640   5.241   3.056  0.3635  2.0514  0.0654
   18SAPS   H2Y 2298   0.605   5.250   2.882  2.0276  0.7489  0.1439
   18SAPS   C23 2299   0.826   4.519   3.369 -0.6853 -0.1065  0.5896
   18SAPS   H3R 2300   0.833   4.542   3.478  0.9675  0.5659  0.3662
   18SAPS   H3S 2301   0.930   4.524   3.330  0.3691  1.0235  3.2428
   18SAPS   C24 2302   0.769   4.379   3.355 -0.0709 -0.1524 -0.2235
   18SAPS   H4R 2303   0.759   4.356   3.247 -0.3616  0.1961 -0.2706
   18SAPS   H4S 2304   0.664   4.371   3.389 -0.6219 -2.7675 -2.2343
   18SAPS   C25 2305   0.852   4.281   3.429 -0.6833  0.3809 -0.8359
   18SAPS   H5R 2306   0.914   4.214   3.368  0.0540 -0.0977  0.4027
   18SAPS   C26 2307   0.862   4.264   3.565  0.3049 -0.0057 -0.8874
   18SAPS   H6R 2308   0.935   4.190   3.601  0.3450  0.0050 -0.9471
   18SAPS   C27 2309   0.782   4.328   3.679 -0.4892 -1.2126  0.3562
   18SAPS   H7R 2310   0.721   4.241   3.712 -1.5358 -0.8445 -0.5418
   18SAPS   H7S 2311   0.708   4.405   3.647 -0.3593 -1.0558  0.4324
   18SAPS   C28 2312   0.877   4.384   3.783 -0.6675 -1.0098  0.4793
   18SAPS   H8R 2313   0.941   4.464   3.744 -0.6819 -1.4879 -0.5467
   18SAPS   C29 2314   0.880   4.358   3.917  0.3670  0.8696 -0.0094
   18SAPS   H9R 2315   0.969   4.394   3.972  0.1923 -0.1943  1.0185
   18SAPS  C210 2316   0.800   4.254   3.996  0.0424 -0.9264  0.2394
   18SAPS  H10R 2317   0.724   4.208   3.929  1.1636 -0.1444 -1.6709
   18SAPS  H10S 2318   0.739   4.302   4.074 -2.4299 -1.9577 -0.9455
   18SAPS  C211 2319   0.892   4.156   4.059  0.1126  0.1990  0.2001
   18SAPS  H11R 2320   0.898   4.063   4.000  0.7479  1.1516 -1.2968
   18SAPS  C212 2321   0.979   4.165   4.163 -0.0264  0.2322 -0.2376
   18SAPS  H12R 2322   1.031   4.072   4.191  0.2502  0.2844 -0.5644
   18SAPS  C213 2323   0.978   4.278   4.256 -0.0611  0.0723 -0.0121
   18SAPS  H13R 2324   0.969   4.237   4.359  0.0057 -0.4410 -0.2103
   18SAPS  H13S 2325   0.888   4.343   4.263  1.2231  1.7853  2.9277
   18SAPS  C214 2326   1.100   4.361   4.268  0.7955 -0.3754  0.1808
   18SAPS  H14R 2327   1.136   4.388   4.167  2.2449 -1.4205  0.3778
   18SAPS  C215 2328   1.177   4.406   4.375 -0.1506  0.8330  0.3929
   18SAPS  H15R 2329   1.277   4.448   4.356 -0.0080  0.0376 -0.7051
   18SAPS  C216 2330   1.139   4.380   4.519  0.7561  0.0893 -0.6081
   18SAPS  H16R 2331   1.200   4.293   4.552  0.9701  0.1129 -0.9335
   18SAPS  H16S 2332   1.033   4.351   4.527  0.8852 -0.8628 -1.9474
   18SAPS  C217 2333   1.169   4.480   4.636 -0.2890 -0.7853  0.2685
   18SAPS  H17R 2334   1.141   4.585   4.613  2.4406  0.1468  0.9036
   18SAPS  H17S 2335   1.277   4.493   4.656 -0.6542  1.4200  1.0546
   18SAPS  C218 2336   1.096   4.443   4.770 -0.7573 -0.8495  0.5376
   18SAPS  H18R 2337   1.125   4.336   4.780 -1.8478 -1.4069 -1.6840
   18SAPS  H18S 2338   0.986   4.454   4.774 -0.6669  0.2065  0.4652
   18SAPS  C219 2339   1.133   4.531   4.889  0.2333  0.0566  0.5511
   18SAPS  H19R 2340   1.085   4.631   4.876  1.3808  0.8673  2.2063
   18SAPS  H19S 2341   1.242   4.529   4.908 -0.0645 -1.7378  2.5048
   18SAPS  C220 2342   1.072   4.471   5.023 -1.1209  0.0762  0.7391
   18SAPS  H20R 2343   1.142   4.386   5.039  2.5843  2.4162 -1.6914
   18SAPS  H20S 2344   0.968   4.434   5.007 -0.6571 -2.0659  2.1011
   18SAPS  H20T 2345   1.084   4.547   5.103 -0.1597  2.7284 -1.7748
   18SAPS   C33 2346   0.815   5.184   2.940 -0.5673  0.7776  0.0105
   18SAPS   H3X 2347   0.850   5.284   2.908 -0.5779  1.2146  1.2999
   18SAPS   H3Y 2348   0.836   5.113   2.857 -0.4066 -0.0444  0.7344
   18SAPS   C34 2349   0.894   5.138   3.067 -0.5903 -0.1088 -0.0432
   18SAPS   H4X 2350   0.850   5.195   3.151 -1.5325 -0.8848  0.0023
   18SAPS   H4Y 2351   0.998   5.173   3.051 -1.2418  2.2880  0.6805
   18SAPS   C35 2352   0.883   4.982   3.084 -0.2848  0.1758  0.2701
   18SAPS   H5X 2353   0.898   4.939   2.983  0.6913  4.1892 -1.4821
   18SAPS   H5Y 2354   0.781   4.954   3.118 -1.0157 -0.6609 -2.3834
   18SAPS   C36 2355   0.992   4.926   3.184 -0.0121 -0.5492  0.0098
   18SAPS   H6X 2356   1.090   4.956   3.141 -2.1429  2.1970 -3.5837
   18SAPS   H6Y 2357   0.997   4.816   3.189 -1.0952 -0.5475  2.2938
   18SAPS   C37 2358   1.001   4.985   3.324 -0.4960 -0.3996 -0.4606
   18SAPS   H7X 2359   0.904   4.985   3.378  0.2874  0.5644  1.0235
   18SAPS   H7Y 2360   1.047   5.086   3.336  1.2772 -1.4550  3.4350
   18SAPS   C38 2361   1.095   4.907   3.427  0.0759 -0.3256 -0.1231
   18SAPS   H8X 2362   1.195   4.954   3.433 -0.4824  0.7062  3.3326
   18SAPS   H8Y 2363   1.096   4.805   3.384  0.0525  0.5051 -2.1655
   18SAPS   C39 2364   1.055   4.911   3.578 -0.5307 -0.3751  1.0747
   18SAPS   H9X 2365   0.948   4.890   3.600 -1.2609  1.2714 -0.6691
   18SAPS   H9Y 2366   1.075   5.015   3.610 -3.1500  1.0456 -1.4905
   18SAPS  C310 2367   1.133   4.813   3.659 -0.6695  0.0674 -0.1875
   18SAPS  H10X 2368   1.241   4.801   3.635 -0.0786  0.8114  1.8533
   18SAPS  H10Y 2369   1.107   4.711   3.623  2.5064 -1.2954  1.0234
   18SAPS  C311 2370   1.113   4.815   3.803 -0.2573  0.1369 -0.0746
   18SAPS  H11X 2371   1.007   4.801   3.833  0.5170  2.0397  4.3715
   18SAPS  H11Y 2372   1.134   4.916   3.843 -1.1450  0.0324  0.6743
   18SAPS  C312 2373   1.211   4.721   3.880 -0.0783  0.5595  0.0703
   18SAPS  H12X 2374   1.314   4.746   3.848 -0.5095  0.6983 -1.2458
   18SAPS  H12Y 2375   1.176   4.626   3.833 -2.2762  1.8062 -0.9629
   18SAPS  C313 2376   1.188   4.712   4.032  0.0803 -0.1016 -0.0495
   18SAPS  H13X 2377   1.235   4.802   4.075  1.3946  0.1324 -1.8515
   18SAPS  H13Y 2378   1.229   4.619   4.076 -0.7886  0.8252  2.9282
   18SAPS  C314 2379   1.042   4.706   4.078  0.1506  0.0430  0.8919
   18SAPS  H14X 2380   0.995   4.617   4.030 -0.2125 -0.1944  1.6713
   18SAPS  H14Y 2381   0.989   4.797   4.043  1.1613  0.4067  0.3014
   18SAPS  C315 2382   1.018   4.708   4.233  0.1681  0.6163 -0.0444
   18SAPS  H15X 2383   1.091   4.638   4.281  0.2226  0.7877  0.1225
   18SAPS  H15Y 2384   0.924   4.661   4.269 -1.1499  4.6595  2.4421
   18SAPS  C316 2385   1.026   4.854   4.291 -0.3142  0.1753  0.6329
   18SAPS  H16X 2386   0.940   4.915   4.256 -1.6513 -1.8085  0.3038
   18SAPS  H16Y 2387   1.122   4.883   4.243 -0.0187 -1.7120 -0.0249
   18SAPS  C317 2388   1.047   4.863   4.438  0.0294 -0.1413  0.2483
   18SAPS  H17X 2389   1.063   4.971   4.462  0.7774 -0.1876 -0.0347
   18SAPS  H17Y 2390   1.145   4.818   4.461  0.4733  0.1378 -1.0205
   18SAPS  C318 2391   0.937   4.814   4.535 -0.7830  0.2635  0.1599
   18SAPS  H18X 2392   0.908   4.710   4.510  1.8505  0.0447 -2.6197
   18SAPS  H18Y 2393   0.846   4.877   4.533 -0.0067  1.4052 -1.5522
   18SAPS  H18Z 2394   0.979   4.804   4.638  0.6506 -1.4104 -0.5272
   19SAPS     N 2395   1.711   2.454   2.983  0.1524  0.3128  0.6869
   19SAPS   HN1 2396   1.755   2.525   3.045  0.8936  0.6680 -0.2238
   19SAPS   HN2 2397   1.623   2.421   3.029  1.6789 -0.8143  3.0139
   19SAPS   HN3 2398   1.776   2.374   2.970 -0.7477 -0.0403 -2.3993
   19SAPS   C12 2399   1.673   2.505   2.850 -0.3547  0.4561  0.2973
   19SAPS  H12A 2400   1.763   2.534   2.797  0.3477 -1.3889  0.4310
   19SAPS   C13 2401   1.589   2.409   2.768 -0.4197  0.2416 -0.5206
   19SAPS  O13A 2402   1.551   2.302   2.812  0.6579 -0.4257  0.1809
   19SAPS  O13B 2403   1.537   2.449   2.659 -0.0138 -0.6739 -0.1149
   19SAPS   C11 2404   1.590   2.625   2.880  0.1253 -0.0167  0.2688
   19SAPS  H11A 2405   1.500   2.594   2.937 -0.0785 -0.1538 -0.1253
   19SAPS  H11B 2406   1.553   2.664   2.783 -0.0914  0.9274  0.7104
   19SAPS     P 2407   1.579   2.832   3.039 -0.1126  0.3392  0.3938
   19SAPS   O13 2408   1.624   2.967   3.000  0.7032  0.5219  0.0094
   19SAPS   O14 2409   1.433   2.799   3.025  0.1911  0.1853 -0.3388
   19SAPS   O12 2410   1.663   2.726   2.946  0.1982 -0.2608  0.0997
   19SAPS   O11 2411   1.633   2.802   3.181 -0.2838  0.8445  0.4756
   19SAPS    C1 2412   1.610   2.690   3.267  0.1508 -0.2581 -0.1640
   19SAPS    HA 2413   1.552   2.606   3.223 -1.5843  0.9474 -0.2582
   19SAPS    HB 2414   1.706   2.651   3.308  0.4514  0.8219  0.1871
   19SAPS    C2 2415   1.537   2.739   3.390  0.0020  0.5322  0.4047
   19SAPS    HS 2416   1.445   2.791   3.357  0.4624  1.1437  0.0755
   19SAPS   O21 2417   1.628   2.826   3.455 -0.0493 -0.8197  0.1678
   19SAPS   C21 2418   1.575   2.931   3.523  0.2376 -0.0865 -0.2984
   19SAPS   O22 2419   1.460   2.939   3.551  0.4620 -0.1115 -0.5442
   19SAPS   C22 2420   1.677   3.040   3.561  0.1816 -0.6320 -0.4681
   19SAPS   H2R 2421   1.781   3.003   3.575  0.1407 -0.2942  0.7997
   19SAPS   H2S 2422   1.676   3.108   3.473 -0.2985 -0.1093 -0.0600
   19SAPS    C3 2423   1.502   2.614   3.482 -0.8906  0.2440 -0.0256
   19SAPS    HX 2424   1.599   2.568   3.508 -0.2834  1.6127  0.2280
   19SAPS    HY 2425   1.437   2.534   3.441 -1.3639 -0.0919  1.3311
   19SAPS   O31 2426   1.451   2.651   3.612  0.2715  0.3830  0.0372
   19SAPS   C31 2427   1.326   2.687   3.624  0.3545  0.2636  0.0922
   19SAPS   O32 2428   1.240   2.692   3.535 -0.1823  0.7883  0.0805
   19SAPS   C32 2429   1.290   2.728   3.766  0.7043 -0.7100 -0.4327
   19SAPS   H2X 2430   1.221   2.651   3.806  1.3623 -0.3178  1.5795
   19SAPS   H2Y 2431   1.235   2.823   3.752  0.1979 -0.9491 -0.0859
   19SAPS   C23 2432   1.644   3.121   3.692  0.2427  0.4718  0.1467
   19SAPS   H3R 2433   1.627   3.049   3.776  1.8466 -1.2731 -0.9404
   19SAPS   H3S 2434   1.554   3.178   3.662 -0.1037 -0.2800 -0.2547
   19SAPS   C24 2435   1.764   3.213   3.715 -0.2598  0.2632  0.0894
   19SAPS   H4R 2436   1.808   3.268   3.629 -1.6552  0.6734 -0.4005
   19SAPS   H4S 2437   1.840   3.148   3.764 -1.4920 -0.1365  1.5907
   19SAPS   C25 2438   1.723   3.317   3.813  0.0208  0.1155  0.4475
   19SAPS   H5R 2439   1.662   3.397   3.770  1.9073  1.2899 -0.1658
   19SAPS   C26 2440   1.767   3.328   3.940  0.1415 -0.3509  0.3739
   19SAPS   H6R 2441   1.719   3.405   4.002 -0.5670 -0.2634 -0.2680
   19SAPS   C27 2442   1.862   3.239   4.002 -0.0150 -0.4305 -0.3646
   19SAPS   H7R 2443   1.947   3.303   4.034 -1.0410  1.3356 -1.0437
   19SAPS   H7S 2444   1.914   3.169   3.933 -1.0296 -1.1538 -0.4174
   19SAPS   C28 2445   1.813   3.155   4.122  0.1823  0.0289  0.7701
   19SAPS   H8R 2446   1.764   3.060   4.097 -1.5239  1.0468  0.0824
   19SAPS   C29 2447   1.826   3.189   4.252 -0.2291 -0.1669 -0.0523
   19SAPS   H9R 2448   1.771   3.117   4.316  0.2631 -0.7092 -0.2297
   19SAPS  C210 2449   1.906   3.313   4.296  0.5221 -0.2190  0.3824
   19SAPS  H10R 2450   1.919   3.389   4.216 -0.7152 -2.5484 -2.2158
   19SAPS  H10S 2451   2.009   3.274   4.313  0.5158 -0.4320 -0.0658
   19SAPS  C211 2452   1.843   3.365   4.421  0.3597  0.4561 -0.0700
   19SAPS  H11R 2453   1.782   3.456   4.415  0.2375  0.3405 -0.5952
   19SAPS  C212 2454   1.867   3.313   4.543  0.1558 -0.2492 -0.0316
   19SAPS  H12R 2455   1.816   3.362   4.627  0.4227  1.2935 -0.7255
   19SAPS  C213 2456   1.950   3.188   4.586  0.3345 -0.7671 -0.2330
   19SAPS  H13R 2457   2.028   3.220   4.658  0.8646  0.3862 -1.2779
   19SAPS  H13S 2458   2.000   3.147   4.496 -1.5489 -0.9954 -1.2343
   19SAPS  C214 2459   1.862   3.079   4.634  0.1339  0.8439  0.0870
   19SAPS  H14R 2460   1.821   3.015   4.554  0.3885 -0.5176  1.0150
   19SAPS  C215 2461   1.837   3.035   4.762 -0.1853  0.1763 -0.2832
   19SAPS  H15R 2462   1.783   2.940   4.772  0.9916 -0.9961 -3.7598
   19SAPS  C216 2463   1.881   3.113   4.884  0.1495  0.5101 -0.2115
   19SAPS  H16R 2464   1.790   3.120   4.949  0.3536 -1.3637  0.3347
   19SAPS  H16S 2465   1.904   3.216   4.849  0.3373  0.1902 -1.0421
   19SAPS  C217 2466   2.007   3.068   4.964 -0.6330 -0.6347 -0.5875
   19SAPS  H17R 2467   2.084   3.042   4.889  0.6412 -2.5429  1.2756
   19SAPS  H17S 2468   1.992   2.982   5.032 -0.4594 -0.8240 -0.7878
   19SAPS  C218 2469   2.058   3.188   5.056  0.5184 -0.0945  0.5557
   19SAPS  H18R 2470   2.074   3.285   5.004  0.6025 -0.4497 -0.0932
   19SAPS  H18S 2471   2.157   3.172   5.104  1.4838 -2.0446 -1.8619
   19SAPS  C219 2472   1.964   3.195   5.179 -0.1390  0.3644 -0.4591
   19SAPS  H19R 2473   2.000   3.117   5.250  1.5297  1.0320 -0.5482
   19SAPS  H19S 2474   1.856   3.173   5.158  0.3034 -0.6616 -1.8269
   19SAPS  C220 2475   1.969   3.337   5.235 -0.8894 -0.0881 -0.7360
   19SAPS  H20R 2476   2.069   3.377   5.259 -1.2134 -0.4819  1.4553
   19SAPS  H20S 2477   1.903   3.361   5.321  0.8573  2.7531 -0.0836
   19SAPS  H20T 2478   1.929   3.394   5.148 -1.2380  0.0614 -0.4791
   19SAPS   C33 2479   1.410   2.746   3.861 -0.0991 -0.5080 -0.4603
   19SAPS   H3X 2480   1.474   2.816   3.804 -0.7498 -1.0223 -1.8841
   19SAPS   H3Y 2481   1.461   2.649   3.874 -0.7109 -1.0878 -2.0760
   19SAPS   C34 2482   1.372   2.811   3.991 -0.1423  0.2773  0.4183
   19SAPS   H4X 2483   1.281   2.759   4.027 -0.5308 -0.2455 -1.2525
   19SAPS   H4Y 2484   1.343   2.919   3.985  2.9100  1.2621  1.3370
   19SAPS   C35 2485   1.481   2.811   4.099  0.1013 -0.6101 -0.7828
   19SAPS   H5X 2486   1.541   2.902   4.077 -0.4315 -0.3418 -1.1526
   19SAPS   H5Y 2487   1.545   2.725   4.069 -0.8024 -0.6110 -2.8552
   19SAPS   C36 2488   1.426   2.825   4.245 -0.4398  0.4328  0.0811
   19SAPS   H6X 2489   1.358   2.738   4.263  0.9513 -0.3662  1.7657
   19SAPS   H6Y 2490   1.371   2.920   4.261 -3.2535 -1.0588 -0.0699
   19SAPS   C37 2491   1.538   2.793   4.345  0.3308 -0.4700  0.0737
   19SAPS   H7X 2492   1.603   2.883   4.345 -2.3908  1.6645  1.7701
   19SAPS   H7Y 2493   1.585   2.698   4.312  0.5180  0.5893 -3.0518
   19SAPS   C38 2494   1.470   2.777   4.489 -0.4081 -0.2609 -0.2401
   19SAPS   H8X 2495   1.408   2.685   4.487  0.4887 -0.8841  0.2987
   19SAPS   H8Y 2496   1.400   2.863   4.501  0.0710  0.0647  0.2906
   19SAPS   C39 2497   1.581   2.778   4.602  0.1692  0.1840 -0.3810
   19SAPS   H9X 2498   1.628   2.878   4.599  1.9959 -0.6603 -0.8589
   19SAPS   H9Y 2499   1.652   2.696   4.579  0.1940  0.7687 -2.6123
   19SAPS  C310 2500   1.515   2.751   4.737 -0.0308 -0.8527 -0.8483
   19SAPS  H10X 2501   1.445   2.665   4.730  1.1529 -1.7877 -1.5447
   19SAPS  H10Y 2502   1.459   2.841   4.771  0.0509 -0.8387 -0.7520
   19SAPS  C311 2503   1.614   2.724   4.840 -0.6794  0.3854  0.0687
   19SAPS  H11X 2504   1.672   2.813   4.870 -1.3719  1.3454 -1.2943
   19SAPS  H11Y 2505   1.687   2.647   4.807 -0.0446  1.0841 -0.1811
   19SAPS  C312 2506   1.540   2.674   4.964  0.1718 -0.1979  0.6547
   19SAPS  H12X 2507   1.472   2.596   4.925  0.2916 -0.1604  0.3630
   19SAPS  H12Y 2508   1.478   2.761   4.996  1.4562  1.3385 -0.8154
   19SAPS  C313 2509   1.637   2.660   5.086  0.2605  0.2369 -0.6776
   19SAPS  H13X 2510   1.654   2.757   5.136 -0.5168 -0.7344  1.5928
   19SAPS  H13Y 2511   1.738   2.629   5.054  0.9763  2.8655 -1.1595
   19SAPS  C314 2512   1.588   2.554   5.189 -0.6887 -0.2377 -0.5653
   19SAPS  H14X 2513   1.656   2.569   5.276 -1.3680  0.5836 -0.1650
   19SAPS  H14Y 2514   1.607   2.454   5.142 -0.8780 -0.8583  0.6471
   19SAPS  C315 2515   1.443   2.584   5.229 -0.2655 -0.2011  0.3825
   19SAPS  H15X 2516   1.368   2.552   5.153  0.9686  0.0460 -0.9963
   19SAPS  H15Y 2517   1.424   2.687   5.265 -1.2426 -1.1148  2.6343
   19SAPS  C316 2518   1.405   2.506   5.352  1.3544 -0.0984  0.8687
   19SAPS  H16X 2519   1.481   2.536   5.427  3.4421 -0.7018 -0.9180
   19SAPS  H16Y 2520   1.418   2.396   5.343  0.0228 -0.0983 -2.9523
   19SAPS  C317 2521   1.263   2.548   5.395 -0.0652 -1.1346 -0.7146
   19SAPS  H17X 2522   1.193   2.501   5.322 -2.0105  2.1217 -1.1687
   19SAPS  H17Y 2523   1.255   2.658   5.380  0.0076 -1.2026 -1.2955
   19SAPS  C318 2524   1.222   2.503   5.532 -0.5964  0.0444 -0.2633
   19SAPS  H18X 2525   1.287   2.552   5.608 -1.0284  0.1451  0.0411
   19SAPS  H18Y 2526   1.234   2.393   5.548 -0.6003  0.0786 -0.0163
   19SAPS  H18Z 2527   1.114   2.516   5.554 -0.6253 -0.0850 -0.3262
   20SAPS     N 2528   1.954   1.936   3.070  0.1074 -0.2889 -0.2277
   20SAPS   HN1 2529   1.993   1.951   3.165 -1.0148 -2.0431  0.5699
   20SAPS   HN2 2530   1.851   1.921   3.079  0.1773 -0.3860  0.4197
   20SAPS   HN3 2531   1.987   1.846   3.028  1.1353  0.2379 -0.5604
   20SAPS   C12 2532   1.978   2.043   2.967  0.5806 -0.6549 -0.8707
   20SAPS  H12A 2533   1.954   2.007   2.868 -1.3760 -0.1877 -0.6141
   20SAPS   C13 2534   1.893   2.165   2.999  0.3584  0.0286 -0.4035
   20SAPS  O13A 2535   1.798   2.175   3.089 -0.1031 -0.3398  0.1005
   20SAPS  O13B 2536   1.907   2.261   2.911  0.5848  0.2267 -0.0138
   20SAPS   C11 2537   2.136   2.076   2.959  0.1505 -0.1580 -0.6439
   20SAPS  H11A 2538   2.154   2.139   2.869  1.4950  0.3834 -0.0274
   20SAPS  H11B 2539   2.177   1.973   2.949 -0.9604 -0.5485 -1.3236
   20SAPS     P 2540   2.311   2.117   3.156  0.2100 -0.0837  0.2219
   20SAPS   O13 2541   2.341   1.970   3.147 -0.2933  0.5343  0.0262
   20SAPS   O14 2542   2.415   2.202   3.093  0.1840 -0.1518 -0.5764
   20SAPS   O12 2543   2.174   2.148   3.078 -0.3274 -0.6004  0.2260
   20SAPS   O11 2544   2.285   2.155   3.308 -0.7215 -0.3155  0.7795
   20SAPS    C1 2545   2.163   2.224   3.344  0.1006  0.1568 -0.1876
   20SAPS    HA 2546   2.077   2.200   3.278  0.6529  1.0409 -1.2572
   20SAPS    HB 2547   2.137   2.199   3.449  2.7851 -0.4885  0.4078
   20SAPS    C2 2548   2.178   2.378   3.336 -0.2059  1.0834  0.4955
   20SAPS    HS 2549   2.218   2.393   3.234 -1.9577 -0.4847 -0.4947
   20SAPS   O21 2550   2.265   2.419   3.435  0.1944  0.1461  0.2229
   20SAPS   C21 2551   2.286   2.542   3.452 -0.7872 -1.1135 -0.5062
   20SAPS   O22 2552   2.277   2.635   3.372 -0.2252 -0.3868  0.5214
   20SAPS   C22 2553   2.334   2.567   3.596  0.1666 -0.7333 -0.4557
   20SAPS   H2R 2554   2.444   2.562   3.612  0.4703  2.1864 -1.1305
   20SAPS   H2S 2555   2.283   2.661   3.624  1.0665 -0.1551 -0.7259
   20SAPS    C3 2556   2.036   2.447   3.344  0.0812 -0.1368  0.2399
   20SAPS    HX 2557   1.979   2.402   3.261 -0.9039  0.5819  0.5150
   20SAPS    HY 2558   2.050   2.555   3.320  1.1658  1.0091  4.9609
   20SAPS   O31 2559   1.959   2.419   3.465 -0.4715  0.1445  0.9929
   20SAPS   C31 2560   1.910   2.526   3.519  0.0773 -0.3589 -0.2071
   20SAPS   O32 2561   1.922   2.639   3.481 -0.3503 -0.4450  0.6338
   20SAPS   C32 2562   1.852   2.480   3.652 -0.2400  0.1519  0.7650
   20SAPS   H2X 2563   1.927   2.415   3.702  1.3578  0.2887 -1.3196
   20SAPS   H2Y 2564   1.774   2.408   3.619  0.1562 -0.5881  1.3956
   20SAPS   C23 2565   2.265   2.470   3.696 -0.0976 -0.0911 -0.1777
   20SAPS   H3R 2566   2.304   2.369   3.674  0.6448  0.1039  0.1943
   20SAPS   H3S 2567   2.154   2.476   3.691 -0.1288  0.4249  0.8522
   20SAPS   C24 2568   2.294   2.499   3.849  0.3692 -0.2537 -0.7636
   20SAPS   H4R 2569   2.260   2.601   3.878 -1.3442 -0.4292 -1.9606
   20SAPS   H4S 2570   2.400   2.488   3.881  0.0590  1.0679  0.8598
   20SAPS   C25 2571   2.231   2.392   3.929  0.9279 -0.0731 -0.6017
   20SAPS   H5R 2572   2.222   2.294   3.880 -0.6569  0.1162 -0.7523
   20SAPS   C26 2573   2.183   2.419   4.053 -0.5016  0.0521 -0.0541
   20SAPS   H6R 2574   2.140   2.331   4.102 -1.3401 -1.4316 -3.2156
   20SAPS   C27 2575   2.200   2.544   4.143  0.3784  0.6144 -0.0098
   20SAPS   H7R 2576   2.118   2.559   4.216 -1.4056  0.8128 -1.9489
   20SAPS   H7S 2577   2.220   2.640   4.091  0.5787  0.1445 -0.8091
   20SAPS   C28 2578   2.334   2.522   4.209 -0.0572 -0.6151 -0.1890
   20SAPS   H8R 2579   2.426   2.531   4.148  0.6176  0.4100  0.9342
   20SAPS   C29 2580   2.363   2.483   4.335 -0.0106  1.0270  0.5980
   20SAPS   H9R 2581   2.468   2.469   4.363 -0.1912 -0.4105  0.6329
   20SAPS  C210 2582   2.266   2.470   4.444  0.1446  0.0087 -0.6235
   20SAPS  H10R 2583   2.166   2.512   4.417  0.2356 -0.6833 -2.1796
   20SAPS  H10S 2584   2.303   2.535   4.525  1.4664 -0.5225 -0.7845
   20SAPS  C211 2585   2.241   2.324   4.471 -0.0195 -0.1089 -0.8870
   20SAPS  H11R 2586   2.181   2.278   4.391  1.5309 -0.8001 -1.7084
   20SAPS  C212 2587   2.277   2.248   4.573 -0.4306  0.4957  0.1012
   20SAPS  H12R 2588   2.253   2.141   4.562  0.5484  0.4757 -2.5345
   20SAPS  C213 2589   2.357   2.291   4.694  1.1342  0.8723  0.0768
   20SAPS  H13R 2590   2.332   2.222   4.777  0.9380  2.0079  0.9839
   20SAPS  H13S 2591   2.328   2.395   4.721  1.3462  1.0229 -0.2701
   20SAPS  C214 2592   2.513   2.275   4.672  0.3573  0.4755  0.6734
   20SAPS  H14R 2593   2.552   2.212   4.591 -1.8482 -1.0781  0.7231
   20SAPS  C215 2594   2.607   2.330   4.750 -0.4027 -0.1201 -0.4221
   20SAPS  H15R 2595   2.713   2.322   4.725 -0.6081 -0.4957 -1.2273
   20SAPS  C216 2596   2.580   2.414   4.870  0.1123 -0.8105  0.4898
   20SAPS  H16R 2597   2.471   2.410   4.895  0.1473 -2.2492  0.5059
   20SAPS  H16S 2598   2.603   2.520   4.848 -2.6996  0.0099  1.0125
   20SAPS  C217 2599   2.659   2.369   4.996 -0.3088 -0.6147  0.0379
   20SAPS  H17R 2600   2.661   2.452   5.070 -0.5264  1.0563 -1.7442
   20SAPS  H17S 2601   2.765   2.352   4.966  0.1368  2.1750 -0.2389
   20SAPS  C218 2602   2.601   2.242   5.058 -0.2076  0.4191  0.0040
   20SAPS  H18R 2603   2.605   2.154   4.991  1.6920 -0.1311  0.8040
   20SAPS  H18S 2604   2.493   2.254   5.082 -0.0688  1.6535  0.0929
   20SAPS  C219 2605   2.682   2.207   5.182 -0.7679 -0.5332 -1.1903
   20SAPS  H19R 2606   2.688   2.296   5.248 -1.3303  0.2000 -2.1073
   20SAPS  H19S 2607   2.788   2.186   5.154 -0.0694  0.5638  0.4930
   20SAPS  C220 2608   2.622   2.085   5.248 -0.8426  0.5714 -0.2736
   20SAPS  H20R 2609   2.512   2.102   5.246 -0.9320 -0.0252 -0.5115
   20SAPS  H20S 2610   2.663   2.071   5.351 -2.5728 -1.0080  0.2590
   20SAPS  H20T 2611   2.651   2.000   5.183  0.5052  0.3526  0.5631
   20SAPS   C33 2612   1.794   2.594   3.726 -0.3675  0.2708 -0.4187
   20SAPS   H3X 2613   1.714   2.579   3.801  0.8911  2.6167  1.5556
   20SAPS   H3Y 2614   1.747   2.676   3.667  0.6239  2.4728  1.6715
   20SAPS   C34 2615   1.898   2.665   3.808 -0.3387 -0.9129 -0.1120
   20SAPS   H4X 2616   1.985   2.706   3.752 -1.0802 -0.8421 -1.2617
   20SAPS   H4Y 2617   1.936   2.586   3.876  0.1303 -1.9769 -1.5488
   20SAPS   C35 2618   1.843   2.781   3.891 -0.6795 -0.6787  0.3672
   20SAPS   H5X 2619   1.739   2.762   3.926 -1.5210  2.7992  0.1789
   20SAPS   H5Y 2620   1.840   2.861   3.814  1.2958 -0.0578  0.8894
   20SAPS   C36 2621   1.946   2.828   4.003 -0.1159 -0.1423  0.8425
   20SAPS   H6X 2622   1.961   2.938   3.999  0.4824 -0.1800  1.6567
   20SAPS   H6Y 2623   2.044   2.784   3.973 -0.2187  1.5811 -2.4069
   20SAPS   C37 2624   1.901   2.770   4.136  0.2709  0.1913 -0.1646
   20SAPS   H7X 2625   1.900   2.659   4.142 -0.7050  0.0574 -2.0273
   20SAPS   H7Y 2626   1.793   2.789   4.157  0.2117 -0.6160  0.2834
   20SAPS   C38 2627   1.987   2.828   4.248  0.2779 -0.6229 -0.9553
   20SAPS   H8X 2628   1.985   2.938   4.257  0.6343 -0.3874 -3.1817
   20SAPS   H8Y 2629   2.088   2.810   4.206  0.7350  2.9254 -1.6154
   20SAPS   C39 2630   1.980   2.756   4.391  0.1743 -0.0082 -0.1429
   20SAPS   H9X 2631   1.983   2.645   4.387 -1.3180 -0.0927  0.7026
   20SAPS   H9Y 2632   1.884   2.787   4.436  0.4766  0.3167  0.2830
   20SAPS  C310 2633   2.100   2.794   4.479  0.3498 -0.4936 -0.4487
   20SAPS  H10X 2634   2.099   2.905   4.491 -0.7920 -0.7194  2.3116
   20SAPS  H10Y 2635   2.194   2.771   4.425  0.5328 -1.2180  0.1552
   20SAPS  C311 2636   2.089   2.731   4.618 -1.1462  0.3458  0.9056
   20SAPS  H11X 2637   2.113   2.623   4.605 -1.4460  0.4598 -0.8312
   20SAPS  H11Y 2638   1.983   2.746   4.647 -1.3527  1.8941 -0.4998
   20SAPS  C312 2639   2.187   2.781   4.727 -0.3920  0.5522 -0.3928
   20SAPS  H12X 2640   2.175   2.724   4.822 -1.6918  3.8305  1.5919
   20SAPS  H12Y 2641   2.144   2.876   4.765 -0.6188 -0.7283  2.8809
   20SAPS  C313 2642   2.335   2.781   4.686  0.0664  0.6760  0.2794
   20SAPS  H13X 2643   2.349   2.828   4.586 -0.2313 -2.9964 -1.6537
   20SAPS  H13Y 2644   2.359   2.674   4.668  2.7197  1.3791 -0.8689
   20SAPS  C314 2645   2.440   2.833   4.789 -0.8380 -0.4413 -0.5586
   20SAPS  H14X 2646   2.427   2.942   4.804 -0.7407 -0.1486 -2.3910
   20SAPS  H14Y 2647   2.542   2.818   4.748 -0.8579 -2.7211  0.0752
   20SAPS  C315 2648   2.433   2.774   4.931 -0.0658 -0.2222  0.2668
   20SAPS  H15X 2649   2.411   2.665   4.932 -0.0501 -0.2396 -0.4879
   20SAPS  H15Y 2650   2.344   2.819   4.978  0.1394  1.3890 -0.7932
   20SAPS  C316 2651   2.558   2.815   5.013 -0.4750 -0.1269  0.1102
   20SAPS  H16X 2652   2.587   2.922   5.000  0.9561 -0.5932 -0.7607
   20SAPS  H16Y 2653   2.639   2.749   4.977 -0.0803  1.3340 -1.8278
   20SAPS  C317 2654   2.542   2.773   5.167 -0.1000  0.0760 -0.1184
   20SAPS  H17X 2655   2.487   2.676   5.167  1.1518 -0.6774  0.7235
   20SAPS  H17Y 2656   2.477   2.853   5.208 -2.3295 -2.1098  0.9085
   20SAPS  C318 2657   2.674   2.775   5.245  0.3736  0.4726 -0.6000
   20SAPS  H18X 2658   2.655   2.772   5.355  0.2165 -2.0938 -0.6371
   20SAPS  H18Y 2659   2.726   2.873   5.237  0.3017  0.4333 -1.5907
   20SAPS  H18Z 2660   2.736   2.685   5.228  0.8985  0.7781 -0.3377
   21CHL1    C3 2661   6.254   4.120   7.030 -0.1623  0.0270  0.3639
   21CHL1    H3 2662   6.167   4.054   7.010 -2.2127  3.2282 -2.2176
   21CHL1    O3 2663   6.275   4.142   7.164 -0.0220  0.0116 -0.1490
   21CHL1   H3' 2664   6.212   4.206   7.200 -0.6499 -1.1198  0.8081
   21CHL1    C4 2665   6.373   4.052   6.956  0.6278  0.3139  0.0422
   21CHL1   H4A 2666   6.466   4.110   6.974  1.8759 -1.6777  0.2788
   21CHL1   H4B 2667   6.367   3.953   7.005 -2.6325  1.3004  1.9958
   21CHL1    C5 2668   6.359   4.045   6.803 -0.5580 -0.2551  0.1352
   21CHL1    C6 2669   6.371   3.932   6.739 -0.0180  0.2618  0.1998
   21CHL1    H6 2670   6.399   3.842   6.795 -1.7699 -0.2377  0.3182
   21CHL1    C7 2671   6.374   3.921   6.593 -0.6640 -0.2294 -0.1729
   21CHL1   H7A 2672   6.463   3.860   6.569  0.1707  1.1244 -0.6604
   21CHL1   H7B 2673   6.289   3.860   6.556  1.9910 -2.9708 -2.2397
   21CHL1    C8 2674   6.391   4.055   6.520 -0.0827 -0.1563 -0.1978
   21CHL1    H8 2675   6.493   4.099   6.525 -0.1129  0.0233 -0.9888
   21CHL1   C14 2676   6.341   4.039   6.382 -0.1482  0.6433  0.1610
   21CHL1   H14 2677   6.238   4.001   6.398  1.1726 -3.4474  0.0290
   21CHL1   C15 2678   6.405   3.930   6.303 -0.6252  1.0341 -0.2226
   21CHL1  H15A 2679   6.514   3.923   6.326  0.1135  0.4830 -3.3913
   21CHL1  H15B 2680   6.362   3.836   6.343  1.3538 -0.1076 -0.6529
   21CHL1   C16 2681   6.372   3.966   6.159 -0.3936 -0.2591 -0.0651
   21CHL1  H16A 2682   6.467   3.976   6.103  0.1648 -1.5396  0.6033
   21CHL1  H16B 2683   6.323   3.882   6.104 -0.4966 -0.1701 -0.1109
   21CHL1   C17 2684   6.304   4.099   6.165  0.0174  0.4119  0.6165
   21CHL1   H17 2685   6.196   4.075   6.181 -0.6291  2.9475  0.6109
   21CHL1   C13 2686   6.343   4.163   6.295  0.7970 -0.5316  0.8455
   21CHL1   C18 2687   6.491   4.217   6.284 -0.5483 -0.3156 -0.1760
   21CHL1  H18A 2688   6.494   4.292   6.202  1.8616  0.9703  0.9952
   21CHL1  H18B 2689   6.517   4.275   6.375 -1.2605  1.8139 -1.2440
   21CHL1  H18C 2690   6.567   4.139   6.262 -1.6613 -1.6284  0.5078
   21CHL1   C12 2691   6.250   4.268   6.356 -0.3646 -0.7082  0.7616
   21CHL1  H12A 2692   6.267   4.365   6.305  0.5253 -0.4322  1.5560
   21CHL1  H12B 2693   6.147   4.241   6.324  0.5143 -1.0793 -2.0666
   21CHL1   C11 2694   6.279   4.295   6.505 -0.4222 -0.3318  0.8191
   21CHL1  H11A 2695   6.372   4.354   6.522 -1.2766  1.2156  0.3000
   21CHL1  H11B 2696   6.190   4.349   6.546  0.1370  0.9305  0.4154
   21CHL1    C9 2697   6.297   4.164   6.588  0.0141  0.4207  1.0146
   21CHL1    H9 2698   6.198   4.115   6.579  0.3024  0.1240 -1.0824
   21CHL1   C10 2699   6.328   4.182   6.737 -0.2702  0.2246  0.6129
   21CHL1   C19 2700   6.441   4.279   6.745 -0.9393  0.1338  0.0946
   21CHL1  H19A 2701   6.526   4.240   6.684 -1.5393 -0.0195 -0.6610
   21CHL1  H19B 2702   6.418   4.383   6.715 -1.0768  0.1973  0.4152
   21CHL1  H19C 2703   6.489   4.291   6.845  1.1314  2.0984 -1.0282
   21CHL1    C1 2704   6.201   4.241   6.812  0.0616 -0.2365  0.0879
   21CHL1   H1A 2705   6.172   4.333   6.756  0.0243 -0.5847 -0.4719
   21CHL1   H1B 2706   6.121   4.166   6.792  0.9883 -0.7218 -2.1652
   21CHL1    C2 2707   6.221   4.254   6.960  0.4197 -0.0214  0.1644
   21CHL1   H2A 2708   6.123   4.282   7.005  0.3809 -0.4231  0.3317
   21CHL1   H2B 2709   6.284   4.340   6.993  1.8779  0.5474 -3.6128
   21CHL1   C20 2710   6.309   4.184   6.035  0.0380 -0.2733  0.3095
   21CHL1   H20 2711   6.396   4.252   6.036  0.7183 -1.1335  1.2022
   21CHL1   C21 2712   6.183   4.275   6.030  0.0719  0.4520 -0.2337
   21CHL1  H21A 2713   6.184   4.336   5.937 -1.8905  0.3883 -0.3390
   21CHL1  H21B 2714   6.179   4.332   6.125  2.4118 -2.9689  2.1692
   21CHL1  H21C 2715   6.089   4.215   6.032  0.6565 -0.5105 -0.9483
   21CHL1   C22 2716   6.324   4.100   5.904  0.7951 -0.5243 -0.7928
   21CHL1  H22A 2717   6.407   4.026   5.906  0.5471 -0.8413 -1.6967
   21CHL1  H22B 2718   6.231   4.040   5.891 -0.6685  1.2833  0.6304
   21CHL1   C23 2719   6.365   4.186   5.785  0.5806  0.2491  0.1986
   21CHL1  H23A 2720   6.280   4.256   5.773 -0.9411 -1.5868 -0.1741
   21CHL1  H23B 2721   6.453   4.254   5.796  0.0858  1.6065 -3.1267
   21CHL1   C24 2722   6.398   4.097   5.661 -0.2823 -0.3168 -0.4832
   21CHL1  H24A 2723   6.475   4.026   5.698 -0.4074  0.5722  1.6840
   21CHL1  H24B 2724   6.306   4.039   5.639 -1.9861  2.1883 -0.4507
   21CHL1   C25 2725   6.432   4.180   5.536 -0.0838  0.1110 -0.1121
   21CHL1   H25 2726   6.401   4.285   5.555  1.9583  1.1585 -2.1552
   21CHL1   C26 2727   6.587   4.168   5.520 -0.2571  0.6399 -0.2348
   21CHL1  H26A 2728   6.609   4.217   5.423  0.3660  0.7042 -0.0649
   21CHL1  H26B 2729   6.630   4.231   5.601 -0.9186  0.8406 -0.0412
   21CHL1  H26C 2730   6.614   4.060   5.517 -0.9562  0.2922  2.8016
   21CHL1   C27 2731   6.363   4.135   5.407  0.3367  0.3037 -0.1514
   21CHL1  H27A 2732   6.400   4.202   5.326  2.6773 -0.1129  0.5027
   21CHL1  H27B 2733   6.393   4.035   5.368  0.1548  0.0595  0.3281
   21CHL1  H27C 2734   6.254   4.137   5.428  0.4696 -2.2733  1.1333
   22CHL1    C3 2735   2.199   4.554   6.928  0.3676 -0.2914  0.8365
   22CHL1    H3 2736   2.309   4.540   6.924  0.7774  2.4458 -2.5169
   22CHL1    O3 2737   2.141   4.507   7.046  0.4293 -0.0523 -0.3017
   22CHL1   H3' 2738   2.194   4.536   7.121 -1.5212  2.7027  0.1735
   22CHL1    C4 2739   2.161   4.701   6.889 -1.4562  0.1063 -0.3810
   22CHL1   H4A 2740   2.051   4.716   6.886 -1.5261 -0.0752  0.7919
   22CHL1   H4B 2741   2.200   4.761   6.974  0.3518  0.4087 -1.3816
   22CHL1    C5 2742   2.225   4.747   6.755 -1.0483  0.2946 -0.0425
   22CHL1    C6 2743   2.301   4.859   6.747 -0.6514 -0.2581  0.7758
   22CHL1    H6 2744   2.317   4.917   6.839 -2.8289  0.9855  0.4370
   22CHL1    C7 2745   2.369   4.899   6.621  0.1138 -0.0754 -0.5384
   22CHL1   H7A 2746   2.351   5.008   6.617  0.6208  0.0091 -0.5982
   22CHL1   H7B 2747   2.478   4.883   6.632  0.5598  3.6279  2.2239
   22CHL1    C8 2748   2.320   4.836   6.491  0.7517 -0.5505  0.1932
   22CHL1    H8 2749   2.227   4.885   6.456  0.9468 -1.7408 -2.1688
   22CHL1   C14 2750   2.419   4.861   6.379  0.0757  0.8285 -0.0881
   22CHL1   H14 2751   2.508   4.801   6.407 -1.0651  0.1072  2.2683
   22CHL1   C15 2752   2.464   4.997   6.357 -0.4723  0.0548  0.3397
   22CHL1  H15A 2753   2.379   5.069   6.354 -1.9281 -1.6494 -1.3717
   22CHL1  H15B 2754   2.541   5.034   6.428 -0.7427  0.5372  0.3885
   22CHL1   C16 2755   2.524   4.992   6.216 -0.2085  0.0603 -0.0207
   22CHL1  H16A 2756   2.464   5.072   6.165  0.0561  0.0469 -0.3586
   22CHL1  H16B 2757   2.630   5.024   6.204  0.3173 -0.3448  2.8793
   22CHL1   C17 2758   2.487   4.851   6.153 -0.5274 -0.5436  0.3100
   22CHL1   H17 2759   2.571   4.784   6.179 -1.7745 -3.0774 -1.7817
   22CHL1   C13 2760   2.367   4.805   6.246 -0.1762  0.4398 -0.1121
   22CHL1   C18 2761   2.243   4.878   6.193 -0.2416 -0.0829 -0.5390
   22CHL1  H18A 2762   2.192   4.811   6.121  0.8483  0.5610 -1.9580
   22CHL1  H18B 2763   2.165   4.889   6.272 -1.2705 -0.5473 -1.4684
   22CHL1  H18C 2764   2.254   4.978   6.148 -2.0660  0.4284  0.0530
   22CHL1   C12 2765   2.339   4.651   6.259  0.0259 -0.2779 -0.0899
   22CHL1  H12A 2766   2.306   4.602   6.164 -1.2437 -0.1078  0.2389
   22CHL1  H12B 2767   2.435   4.599   6.277  1.0617  1.8887  0.9271
   22CHL1   C11 2768   2.245   4.625   6.375 -0.0937 -0.7357 -0.3231
   22CHL1  H11A 2769   2.142   4.650   6.341 -1.1471 -1.3927  2.1781
   22CHL1  H11B 2770   2.252   4.516   6.396  0.3390 -0.7058 -0.2979
   22CHL1    C9 2771   2.288   4.689   6.510  0.4823 -0.6514  0.7582
   22CHL1    H9 2772   2.384   4.640   6.536  1.1921 -1.6117 -3.0708
   22CHL1   C10 2773   2.191   4.657   6.634 -0.6181  0.3811  0.7505
   22CHL1   C19 2774   2.043   4.671   6.596  0.3860  0.6546 -0.2840
   22CHL1  H19A 2775   2.022   4.772   6.556  2.3396  0.9623 -0.6098
   22CHL1  H19B 2776   2.021   4.591   6.522 -0.3746 -0.9640  1.5937
   22CHL1  H19C 2777   1.971   4.660   6.681 -1.6226 -0.3242 -2.0006
   22CHL1    C1 2778   2.221   4.517   6.686 -0.4062 -0.0224  0.2843
   22CHL1   H1A 2779   2.212   4.438   6.607 -0.1018 -1.4211  1.6062
   22CHL1   H1B 2780   2.331   4.508   6.700 -0.4166  1.3040  1.2894
   22CHL1    C2 2781   2.151   4.470   6.811  0.8757 -0.0644 -0.2728
   22CHL1   H2A 2782   2.160   4.360   6.823  3.3452  0.0904 -0.2308
   22CHL1   H2B 2783   2.042   4.489   6.802  0.5431 -0.7338  1.8257
   22CHL1   C20 2784   2.468   4.848   5.995 -0.1558 -0.4122 -0.2834
   22CHL1   H20 2785   2.394   4.929   5.980  0.8188  0.2803 -1.4876
   22CHL1   C21 2786   2.418   4.709   5.947 -0.3115 -0.5659  0.5501
   22CHL1  H21A 2787   2.441   4.694   5.839  0.0746  0.2613  0.5112
   22CHL1  H21B 2788   2.309   4.693   5.959 -0.8478  1.8589 -0.6191
   22CHL1  H21C 2789   2.476   4.634   6.005  3.4619  1.0153 -0.8563
   22CHL1   C22 2790   2.601   4.880   5.915  0.3003 -0.5888 -0.2036
   22CHL1  H22A 2791   2.662   4.958   5.966 -1.4846 -0.3238  1.6544
   22CHL1  H22B 2792   2.665   4.789   5.916 -1.2613 -1.7129  0.3513
   22CHL1   C23 2793   2.573   4.937   5.772  1.0253 -0.2513  0.2080
   22CHL1  H23A 2794   2.663   4.918   5.711  0.1865  0.2140 -1.2245
   22CHL1  H23B 2795   2.487   4.887   5.722  0.0619  0.7508  0.8163
   22CHL1   C24 2796   2.548   5.089   5.773 -0.4110 -0.2748  0.6290
   22CHL1  H24A 2797   2.446   5.094   5.818 -0.6369 -1.8157  0.3404
   22CHL1  H24B 2798   2.628   5.130   5.838  0.6906 -1.2650 -0.0848
   22CHL1   C25 2799   2.547   5.156   5.631 -0.4628 -0.3520 -0.0110
   22CHL1   H25 2800   2.478   5.103   5.562  0.4887  0.5200 -1.7140
   22CHL1   C26 2801   2.484   5.298   5.647 -0.2731  0.5137  0.2147
   22CHL1  H26A 2802   2.427   5.325   5.555 -1.0355 -0.1140  0.4908
   22CHL1  H26B 2803   2.399   5.290   5.718 -0.3342 -0.2645  0.0593
   22CHL1  H26C 2804   2.570   5.365   5.668  2.3530 -2.2194 -1.1117
   22CHL1   C27 2805   2.675   5.155   5.547 -0.0804 -0.6155 -0.0651
   22CHL1  H27A 2806   2.698   5.049   5.526 -2.6447 -1.3617  0.4406
   22CHL1  H27B 2807   2.654   5.208   5.452  1.9133 -1.1964 -0.8569
   22CHL1  H27C 2808   2.760   5.199   5.603 -0.7817  0.7102  0.0031
   23CHL1    C3 2809   6.477   2.650   6.998 -0.1670  0.4693 -0.4450
   23CHL1    H3 2810   6.380   2.596   7.002  0.2948 -0.4118 -0.7723
   23CHL1    O3 2811   6.517   2.672   7.136  0.0672  0.4568  0.4371
   23CHL1   H3' 2812   6.608   2.703   7.129  0.9598 -2.2282 -1.6470
   23CHL1    C4 2813   6.576   2.556   6.920 -0.7181  0.2992 -0.2712
   23CHL1   H4A 2814   6.677   2.598   6.937 -1.3452  1.1957  1.5583
   23CHL1   H4B 2815   6.557   2.467   6.984 -2.2476  0.6298 -0.2086
   23CHL1    C5 2816   6.539   2.532   6.777  0.1083 -0.1475 -0.1712
   23CHL1    C6 2817   6.517   2.412   6.717 -0.6743 -0.5661  0.0457
   23CHL1    H6 2818   6.531   2.323   6.781  0.0176  0.7247  1.7794
   23CHL1    C7 2819   6.495   2.388   6.576 -1.0721 -0.2120  0.2204
   23CHL1   H7A 2820   6.544   2.294   6.542 -0.9563  0.7901 -2.6120
   23CHL1   H7B 2821   6.386   2.374   6.565 -1.4384  2.4922 -0.1987
   23CHL1    C8 2822   6.526   2.521   6.493 -0.4403 -0.4288 -1.3275
   23CHL1    H8 2823   6.636   2.535   6.499 -0.0083 -3.2332 -0.9560
   23CHL1   C14 2824   6.462   2.514   6.350 -0.0761  0.2366  1.1060
   23CHL1   H14 2825   6.355   2.488   6.358 -0.3011  1.2017  1.3664
   23CHL1   C15 2826   6.501   2.388   6.261 -0.2270 -0.0965  0.2676
   23CHL1  H15A 2827   6.605   2.359   6.286 -0.4951 -0.2044  1.3059
   23CHL1  H15B 2828   6.441   2.298   6.286 -0.3280 -0.2788 -0.6036
   23CHL1   C16 2829   6.495   2.438   6.110  0.3275 -0.6966 -0.3439
   23CHL1  H16A 2830   6.599   2.439   6.072  0.5334 -0.8677  0.1986
   23CHL1  H16B 2831   6.429   2.368   6.054 -2.3737  1.0479  0.4033
   23CHL1   C17 2832   6.437   2.585   6.126 -0.4730  0.4648  0.1582
   23CHL1   H17 2833   6.328   2.571   6.143 -1.0211 -0.5674 -3.3250
   23CHL1   C13 2834   6.481   2.639   6.260 -1.1548  0.4792 -0.4913
   23CHL1   C18 2835   6.629   2.672   6.247  0.3338 -0.8621 -0.0208
   23CHL1  H18A 2836   6.637   2.772   6.201 -0.6483 -0.7750 -0.0361
   23CHL1  H18B 2837   6.678   2.685   6.345  0.0864 -1.1927  0.1504
   23CHL1  H18C 2838   6.676   2.595   6.182 -0.8052 -1.8435  0.2702
   23CHL1   C12 2839   6.400   2.753   6.323 -0.1225 -0.1192  0.2526
   23CHL1  H12A 2840   6.405   2.850   6.269 -0.7442 -1.9406 -3.3899
   23CHL1  H12B 2841   6.297   2.713   6.338  0.1374 -0.2713  1.8192
   23CHL1   C11 2842   6.450   2.783   6.463  1.4531 -0.1667 -0.4197
   23CHL1  H11A 2843   6.546   2.839   6.469  0.3815  1.7763 -0.6996
   23CHL1  H11B 2844   6.376   2.842   6.520  0.2817 -3.0456  1.2566
   23CHL1    C9 2845   6.464   2.649   6.558  0.1319 -0.0270 -0.1371
   23CHL1    H9 2846   6.362   2.606   6.564  0.2839 -1.0513 -3.0878
   23CHL1   C10 2847   6.522   2.671   6.702  0.0347  0.2876 -0.3222
   23CHL1   C19 2848   6.662   2.736   6.680  0.2433  0.1894 -0.3203
   23CHL1  H19A 2849   6.641   2.837   6.640 -0.9229  0.4613  0.9008
   23CHL1  H19B 2850   6.706   2.751   6.781  0.6016 -0.2661 -0.4076
   23CHL1  H19C 2851   6.723   2.673   6.612 -0.7333  0.2238 -1.2473
   23CHL1    C1 2852   6.431   2.762   6.779  1.1393  0.7113 -0.5024
   23CHL1   H1A 2853   6.436   2.864   6.735  0.3234  1.0366  0.1232
   23CHL1   H1B 2854   6.328   2.721   6.780  0.9948  1.0582  1.0797
   23CHL1    C2 2855   6.465   2.782   6.924  0.1301 -0.0449 -0.3833
   23CHL1   H2A 2856   6.392   2.851   6.971  0.9697  1.1482 -0.7823
   23CHL1   H2B 2857   6.561   2.836   6.941 -0.4294  0.9509 -0.3362
   23CHL1   C20 2858   6.452   2.663   5.995 -0.6160 -0.5609 -0.2472
   23CHL1   H20 2859   6.555   2.662   5.953 -1.1343 -0.0844 -1.5787
   23CHL1   C21 2860   6.411   2.811   6.002  1.1169 -0.1259 -0.1564
   23CHL1  H21A 2861   6.400   2.852   5.900 -3.1725 -1.3755 -0.3981
   23CHL1  H21B 2862   6.487   2.873   6.055  0.3857 -0.2101  1.0446
   23CHL1  H21C 2863   6.321   2.832   6.064 -0.3677  0.3078 -2.3565
   23CHL1   C22 2864   6.375   2.590   5.880  0.6837  0.5285 -0.5664
   23CHL1  H22A 2865   6.404   2.483   5.894 -0.4716  0.5905  4.2164
   23CHL1  H22B 2866   6.265   2.595   5.894  0.7665  0.2790  0.2328
   23CHL1   C23 2867   6.418   2.646   5.739 -0.3948  0.6583  0.2325
   23CHL1  H23A 2868   6.379   2.749   5.723  0.2088  0.9692  0.7111
   23CHL1  H23B 2869   6.529   2.646   5.731 -0.3928  1.9706  0.1371
   23CHL1   C24 2870   6.381   2.545   5.629  0.2117 -0.7247  0.7381
   23CHL1  H24A 2871   6.436   2.451   5.651  1.9232 -0.0083 -0.2862
   23CHL1  H24B 2872   6.273   2.525   5.648 -0.3344  1.8534  0.6349
   23CHL1   C25 2873   6.420   2.597   5.486 -0.7306  0.4066  0.2833
   23CHL1   H25 2874   6.527   2.627   5.482  0.0534 -2.2031 -0.6685
   23CHL1   C26 2875   6.401   2.491   5.377  0.7624 -0.0466  0.3432
   23CHL1  H26A 2876   6.294   2.462   5.367  0.9389 -0.3012 -0.9877
   23CHL1  H26B 2877   6.446   2.533   5.285 -1.1860  1.2855 -0.0554
   23CHL1  H26C 2878   6.457   2.396   5.392 -1.7583 -1.2275  3.5035
   23CHL1   C27 2879   6.325   2.705   5.450 -0.4794  0.0296  0.1799
   23CHL1  H27A 2880   6.322   2.788   5.523 -0.2247  0.1940  0.0055
   23CHL1  H27B 2881   6.352   2.748   5.351  1.6651 -0.4295  0.5049
   23CHL1  H27C 2882   6.221   2.666   5.445 -0.1844 -0.9426  1.0810
   24CHL1    C3 2883   2.582   5.332   6.786  0.5134 -0.0523  0.8811
   24CHL1    H3 2884   2.524   5.427   6.785  0.0027 -0.3136 -1.4302
   24CHL1    O3 2885   2.541   5.272   6.907 -0.5164  0.3346  0.4610
   24CHL1   H3' 2886   2.561   5.330   6.981 -0.0019 -2.0897  2.3071
   24CHL1    C4 2887   2.540   5.246   6.668  0.2443  0.0736  0.4865
   24CHL1   H4A 2888   2.581   5.143   6.676 -3.4710 -1.7221 -0.9740
   24CHL1   H4B 2889   2.431   5.224   6.675  0.6038 -3.5682 -2.3562
   24CHL1    C5 2890   2.576   5.299   6.534 -0.1244  0.1895 -0.3046
   24CHL1    C6 2891   2.489   5.331   6.435 -0.4724 -0.9572  0.0821
   24CHL1    H6 2892   2.380   5.319   6.437 -0.3956 -1.8985 -0.6425
   24CHL1    C7 2893   2.528   5.376   6.302  0.3876  0.0414  0.1080
   24CHL1   H7A 2894   2.472   5.309   6.234 -3.0010  1.9708  0.8013
   24CHL1   H7B 2895   2.494   5.480   6.287 -1.7217 -0.5569  0.4698
   24CHL1    C8 2896   2.675   5.359   6.273 -1.0820 -0.3870  0.1928
   24CHL1    H8 2897   2.696   5.252   6.253 -2.6263 -0.3711 -1.9757
   24CHL1   C14 2898   2.711   5.421   6.137 -0.1974 -0.0238 -0.4061
   24CHL1   H14 2899   2.684   5.528   6.150 -2.5305 -0.4712 -1.1512
   24CHL1   C15 2900   2.634   5.380   6.007  0.1700 -0.0834 -0.1318
   24CHL1  H15A 2901   2.640   5.269   6.003  1.0016 -0.0314 -0.5889
   24CHL1  H15B 2902   2.527   5.413   6.005  0.1093 -0.2884 -0.3637
   24CHL1   C16 2903   2.717   5.433   5.894  0.4343  0.3823 -0.0287
   24CHL1  H16A 2904   2.723   5.361   5.809 -0.9605 -0.0278  0.2003
   24CHL1  H16B 2905   2.667   5.525   5.856 -1.3832  0.0129  1.3496
   24CHL1   C17 2906   2.846   5.495   5.963 -0.0292 -0.4985  0.5624
   24CHL1   H17 2907   2.819   5.600   5.986  3.1419  0.8148 -1.1774
   24CHL1   C13 2908   2.859   5.416   6.097  0.0876  0.6290 -0.1763
   24CHL1   C18 2909   2.915   5.274   6.067  0.3288 -0.1185 -0.3866
   24CHL1  H18A 2910   2.862   5.222   5.985 -0.6098 -0.5814  0.4852
   24CHL1  H18B 2911   3.022   5.281   6.038  0.2280  0.3359 -0.6489
   24CHL1  H18C 2912   2.907   5.212   6.159  0.5958  1.1791  0.5385
   24CHL1   C12 2913   2.938   5.491   6.208 -0.3229  0.4697  0.6950
   24CHL1  H12A 2914   3.046   5.481   6.182 -0.2636 -0.5070  1.2534
   24CHL1  H12B 2915   2.917   5.601   6.209  0.8736  0.7168  2.0667
   24CHL1   C11 2916   2.908   5.419   6.341  0.6908  0.1312 -0.4649
   24CHL1  H11A 2917   2.948   5.316   6.335  0.8495  0.0284  1.6383
   24CHL1  H11B 2918   2.972   5.474   6.414  0.4627 -1.0268  0.6449
   24CHL1    C9 2919   2.764   5.403   6.389  0.0710  0.3619  0.4222
   24CHL1    H9 2920   2.731   5.505   6.417 -1.9090  0.2800 -1.3345
   24CHL1   C10 2921   2.735   5.316   6.515  0.3861 -0.7152  0.2563
   24CHL1   C19 2922   2.800   5.182   6.504  0.2966  0.3134  0.2173
   24CHL1  H19A 2923   2.794   5.140   6.607  0.0602  0.7133  0.3680
   24CHL1  H19B 2924   2.754   5.111   6.431  2.4676 -2.4516  1.3395
   24CHL1  H19C 2925   2.909   5.188   6.483  0.4607 -2.6372 -0.1848
   24CHL1    C1 2926   2.779   5.396   6.644 -0.4766 -0.1037 -0.5768
   24CHL1   H1A 2927   2.890   5.391   6.655 -0.5630  1.2268  1.4471
   24CHL1   H1B 2928   2.752   5.501   6.624 -0.2164  0.3494  1.2570
   24CHL1    C2 2929   2.727   5.353   6.777  0.4176  0.1027  0.7041
   24CHL1   H2A 2930   2.761   5.415   6.863  0.6450 -1.6109  1.9203
   24CHL1   H2B 2931   2.768   5.251   6.797  0.5043 -0.0042 -0.0047
   24CHL1   C20 2932   2.967   5.489   5.871  0.0064 -1.0948  0.1979
   24CHL1   H20 2933   3.048   5.476   5.946 -1.5227 -1.4100  1.8595
   24CHL1   C21 2934   2.967   5.631   5.808  0.2814  0.1359  0.0491
   24CHL1  H21A 2935   3.051   5.641   5.736  0.2483 -1.6974 -0.2941
   24CHL1  H21B 2936   2.970   5.712   5.883  1.1473  0.0434  0.1265
   24CHL1  H21C 2937   2.869   5.642   5.757 -0.2775 -0.8328  0.8779
   24CHL1   C22 2938   2.980   5.383   5.765 -0.1148 -0.1002 -0.5643
   24CHL1  H22A 2939   2.954   5.284   5.807 -0.9979 -0.7561 -2.5185
   24CHL1  H22B 2940   2.912   5.396   5.678 -1.4045 -2.3365  0.0472
   24CHL1   C23 2941   3.124   5.370   5.723  0.0970  0.6560  0.3007
   24CHL1  H23A 2942   3.156   5.465   5.674  0.0427  0.5867  0.1312
   24CHL1  H23B 2943   3.185   5.366   5.816  1.4091  1.5243 -0.4894
   24CHL1   C24 2944   3.159   5.241   5.640  0.2388  0.0368  0.8623
   24CHL1  H24A 2945   3.079   5.219   5.567 -0.6984  2.0387  1.2350
   24CHL1  H24B 2946   3.247   5.260   5.575  0.7942  0.4090  1.6929
   24CHL1   C25 2947   3.185   5.110   5.724 -0.2144 -0.2458 -0.5213
   24CHL1   H25 2948   3.113   5.121   5.808  0.1118 -3.4722  0.3199
   24CHL1   C26 2949   3.160   4.988   5.643  0.3898  0.3682 -0.5298
   24CHL1  H26A 2950   3.222   5.001   5.552  1.0683 -2.1406 -0.4976
   24CHL1  H26B 2951   3.191   4.899   5.702 -0.5309  1.2243  1.3373
   24CHL1  H26C 2952   3.051   4.980   5.622  0.1116  3.4034 -0.7871
   24CHL1   C27 2953   3.330   5.103   5.789 -0.2905  0.8899 -0.3842
   24CHL1  H27A 2954   3.414   5.102   5.716  2.0482 -2.0573  2.0376
   24CHL1  H27B 2955   3.344   5.189   5.857 -1.7479 -0.1282  1.3080
   24CHL1  H27C 2956   3.346   5.008   5.845 -4.9085 -0.1861 -0.4408
   25CHL1    C3 2957   3.814   1.430   7.056  0.1554  0.0442  0.5550
   25CHL1    H3 2958   3.818   1.323   7.084 -0.6285 -0.0279  0.4213
   25CHL1    O3 2959   3.834   1.508   7.176  0.0737  0.0520  0.5033
   25CHL1   H3' 2960   3.748   1.528   7.214 -0.0650  0.4537 -0.0158
   25CHL1    C4 2961   3.927   1.443   6.948 -0.0548 -0.2442  0.4991
   25CHL1   H4A 2962   3.953   1.551   6.945 -0.3077 -0.1922 -1.2255
   25CHL1   H4B 2963   4.017   1.402   6.998 -1.3504 -2.0586  1.4656
   25CHL1    C5 2964   3.910   1.365   6.825 -0.3673 -0.2957  0.2994
   25CHL1    C6 2965   3.998   1.273   6.777  0.6955  0.3628 -0.3596
   25CHL1    H6 2966   4.093   1.248   6.826  0.5849  1.8163  0.6867
   25CHL1    C7 2967   3.973   1.186   6.656  0.0876 -0.2303  0.1053
   25CHL1   H7A 2968   4.069   1.177   6.600 -0.2851 -0.8393 -0.4524
   25CHL1   H7B 2969   3.933   1.088   6.691 -2.2204  0.7971  0.5164
   25CHL1    C8 2970   3.870   1.260   6.558 -0.2768  0.3805 -0.3743
   25CHL1    H8 2971   3.918   1.355   6.525  0.3738  1.0772  2.3353
   25CHL1   C14 2972   3.837   1.169   6.440  0.2168  0.0455  0.4334
   25CHL1   H14 2973   3.812   1.072   6.486  4.3118 -1.2318  0.3942
   25CHL1   C15 2974   3.951   1.131   6.345 -0.1968 -1.0351  0.2459
   25CHL1  H15A 2975   3.995   1.226   6.308 -0.1003 -0.7503  1.0719
   25CHL1  H15B 2976   4.030   1.082   6.406 -0.6780  0.0634  1.8204
   25CHL1   C16 2977   3.879   1.055   6.227 -0.3529 -0.5547  0.3878
   25CHL1  H16A 2978   3.921   1.092   6.132 -1.4814  1.9010  0.7819
   25CHL1  H16B 2979   3.901   0.946   6.240  0.0945 -0.3317  1.6492
   25CHL1   C17 2980   3.727   1.093   6.238 -0.0925 -0.1653  0.3360
   25CHL1   H17 2981   3.679   1.004   6.283 -0.8770 -0.7698 -1.6049
   25CHL1   C13 2982   3.724   1.207   6.342  0.0997  0.0249 -0.2619
   25CHL1   C18 2983   3.764   1.341   6.276  0.2528  0.1795 -0.1433
   25CHL1  H18A 2984   3.682   1.382   6.214 -0.5584  3.3215  2.7707
   25CHL1  H18B 2985   3.795   1.418   6.350 -0.8904 -0.6046  1.2075
   25CHL1  H18C 2986   3.849   1.333   6.205  0.3644  0.3466 -0.0299
   25CHL1   C12 2987   3.601   1.224   6.430 -0.3256  0.2398 -0.1375
   25CHL1  H12A 2988   3.504   1.231   6.377  0.0025 -1.9785 -1.1552
   25CHL1  H12B 2989   3.593   1.121   6.470 -0.2647 -0.0519 -0.8650
   25CHL1   C11 2990   3.624   1.321   6.543  0.6016 -0.9063 -0.2757
   25CHL1  H11A 2991   3.628   1.423   6.499  0.4490  0.6495  3.0208
   25CHL1  H11B 2992   3.528   1.325   6.600  0.0926  0.5238 -1.1667
   25CHL1    C9 2993   3.744   1.298   6.639 -0.2108 -0.5856  0.0185
   25CHL1    H9 2994   3.723   1.209   6.703 -1.0449 -0.0777  0.4781
   25CHL1   C10 2995   3.768   1.391   6.762 -0.1304 -0.8724  0.8194
   25CHL1   C19 2996   3.778   1.534   6.698  0.0517 -0.5170 -0.1744
   25CHL1  H19A 2997   3.807   1.614   6.770 -0.0714 -0.3701 -0.2867
   25CHL1  H19B 2998   3.854   1.538   6.617  0.7367  0.0849  0.4704
   25CHL1  H19C 2999   3.679   1.551   6.651  0.9334 -2.4037 -2.8834
   25CHL1    C1 3000   3.653   1.383   6.869 -0.0630 -0.5133 -0.8398
   25CHL1   H1A 3001   3.564   1.417   6.812 -1.8438  0.8204  2.5081
   25CHL1   H1B 3002   3.632   1.278   6.896 -1.5638  0.1677  0.8253
   25CHL1    C2 3003   3.676   1.455   6.997  0.0938  0.1000 -0.6785
   25CHL1   H2A 3004   3.596   1.426   7.068 -0.0638 -1.3942 -1.4229
   25CHL1   H2B 3005   3.668   1.564   6.974 -0.6907  0.7834  2.4379
   25CHL1   C20 3006   3.664   1.112   6.102 -0.3186  0.1378 -0.4197
   25CHL1   H20 3007   3.727   1.190   6.053  3.8277 -1.7527  1.3673
   25CHL1   C21 3008   3.517   1.153   6.122 -0.4482 -0.0867 -0.2651
   25CHL1  H21A 3009   3.463   1.088   6.195 -0.9490 -1.7377 -2.0282
   25CHL1  H21B 3010   3.457   1.156   6.029  0.3948  0.1335 -0.8123
   25CHL1  H21C 3011   3.512   1.253   6.171  1.8979  0.1390 -0.3814
   25CHL1   C22 3012   3.680   0.981   6.009  0.4961 -1.0318 -0.5322
   25CHL1  H22A 3013   3.779   0.934   6.023  0.5592 -0.2717  2.0138
   25CHL1  H22B 3014   3.599   0.910   6.035  2.1418 -2.1659  1.8466
   25CHL1   C23 3015   3.681   1.018   5.859 -0.2135  0.3629  0.1001
   25CHL1  H23A 3016   3.579   1.056   5.839 -1.8297 -3.3631  0.3734
   25CHL1  H23B 3017   3.758   1.097   5.850  1.1886 -0.4251  3.5326
   25CHL1   C24 3018   3.721   0.901   5.771  0.0289 -0.3980  0.1166
   25CHL1  H24A 3019   3.821   0.865   5.802  0.3792  0.1765 -0.3203
   25CHL1  H24B 3020   3.651   0.816   5.783 -0.6810  0.0195 -0.9335
   25CHL1   C25 3021   3.713   0.925   5.623 -0.2154 -0.4984  0.0257
   25CHL1   H25 3022   3.774   1.015   5.604  0.0565 -0.4932  0.8690
   25CHL1   C26 3023   3.764   0.800   5.548 -1.0447 -0.4255 -0.4477
   25CHL1  H26A 3024   3.696   0.714   5.569 -0.7009 -0.4957  0.4393
   25CHL1  H26B 3025   3.748   0.828   5.442 -2.3222  0.0468 -0.1499
   25CHL1  H26C 3026   3.874   0.790   5.563 -0.9727  0.3454 -0.4199
   25CHL1   C27 3027   3.575   0.952   5.572  0.8560 -0.9084  0.2227
   25CHL1  H27A 3028   3.525   1.045   5.608 -2.3674 -1.4281 -2.3610
   25CHL1  H27B 3029   3.561   0.952   5.462 -0.7328 -1.4561  0.3888
   25CHL1  H27C 3030   3.510   0.878   5.624  2.8617 -2.4556  0.6694
   26CHL1    C3 3031   0.505   4.805   6.831  0.1053 -0.5406  0.3698
   26CHL1    H3 3032   0.610   4.791   6.798  0.2767  3.0186 -0.9671
   26CHL1    O3 3033   0.508   4.798   6.971  0.9469 -0.0811 -0.6432
   26CHL1   H3' 3034   0.455   4.868   7.010 -3.3379 -1.5237 -3.1782
   26CHL1    C4 3035   0.464   4.947   6.791 -0.4555 -0.8955 -0.3526
   26CHL1   H4A 3036   0.370   4.979   6.840  1.1168  0.4529  2.0109
   26CHL1   H4B 3037   0.532   5.014   6.847 -1.8295  1.7261 -1.6640
   26CHL1    C5 3038   0.455   4.953   6.637  0.0421 -0.3890  0.3462
   26CHL1    C6 3039   0.518   5.048   6.565  0.0697  0.1678  0.1305
   26CHL1    H6 3040   0.576   5.120   6.625  1.6034 -0.8736 -0.0180
   26CHL1    C7 3041   0.501   5.072   6.421 -0.0078 -0.8493  0.1550
   26CHL1   H7A 3042   0.492   5.180   6.395  0.4884 -0.8183  0.1104
   26CHL1   H7B 3043   0.599   5.043   6.377  2.2287  3.8131  1.3954
   26CHL1    C8 3044   0.383   5.000   6.357  0.0934  0.8382 -0.2093
   26CHL1    H8 3045   0.287   5.053   6.375  0.5027  1.0154  1.6013
   26CHL1   C14 3046   0.398   4.988   6.207 -0.0251  0.1685  0.3481
   26CHL1   H14 3047   0.486   4.923   6.186  0.2910  0.0758  1.7861
   26CHL1   C15 3048   0.424   5.118   6.134  0.1380  0.6224 -0.0245
   26CHL1  H15A 3049   0.363   5.199   6.180 -0.3564 -0.3674  1.1320
   26CHL1  H15B 3050   0.531   5.145   6.134  0.5976 -1.0862 -0.4388
   26CHL1   C16 3051   0.372   5.087   5.985 -0.0661  0.5608 -0.2495
   26CHL1  H16A 3052   0.283   5.151   5.964  0.4829  1.4547  0.0610
   26CHL1  H16B 3053   0.449   5.095   5.905 -1.2962  1.5808 -1.3991
   26CHL1   C17 3054   0.316   4.941   5.990 -0.1759  0.2779  0.3093
   26CHL1   H17 3055   0.406   4.878   5.975 -0.2239 -0.2054  1.9005
   26CHL1   C13 3056   0.272   4.916   6.134 -0.0271  0.0235 -0.2036
   26CHL1   C18 3057   0.135   4.989   6.154 -0.0313  0.3459  0.0910
   26CHL1  H18A 3058   0.108   4.984   6.261  2.0220  0.5133  0.6587
   26CHL1  H18B 3059   0.143   5.093   6.116 -0.9015  1.1270  1.9407
   26CHL1  H18C 3060   0.055   4.932   6.102  1.6815 -0.8711 -1.3657
   26CHL1   C12 3061   0.273   4.766   6.181 -0.3597  0.1076 -0.3710
   26CHL1  H12A 3062   0.181   4.725   6.134  0.2529 -0.1140 -1.4124
   26CHL1  H12B 3063   0.374   4.727   6.155 -0.4245  0.0679 -0.5617
   26CHL1   C11 3064   0.255   4.778   6.334 -0.3743  0.0694  0.4779
   26CHL1  H11A 3065   0.157   4.822   6.363  1.6322  3.9934  1.9839
   26CHL1  H11B 3066   0.251   4.674   6.373  1.3873  0.2364  1.1658
   26CHL1    C9 3067   0.361   4.859   6.412  0.3394  0.2037 -0.1236
   26CHL1    H9 3068   0.456   4.811   6.378  0.4223  0.1223  0.2181
   26CHL1   C10 3069   0.368   4.854   6.563  0.5516  0.2024  0.2344
   26CHL1   C19 3070   0.224   4.895   6.605 -1.2091  0.0256 -0.0241
   26CHL1  H19A 3071   0.147   4.817   6.583  0.4042 -2.0654  1.3349
   26CHL1  H19B 3072   0.230   4.903   6.715  1.6157 -1.1191 -0.0219
   26CHL1  H19C 3073   0.198   4.993   6.560 -1.0799 -0.4606 -1.2000
   26CHL1    C1 3074   0.413   4.714   6.610  0.7396  0.4014 -0.5182
   26CHL1   H1A 3075   0.352   4.630   6.573 -0.6751  0.6985  0.9983
   26CHL1   H1B 3076   0.518   4.699   6.577  0.6117  1.9808 -1.7739
   26CHL1    C2 3077   0.417   4.694   6.773 -0.0676 -0.6174  0.8083
   26CHL1   H2A 3078   0.476   4.601   6.785  0.2440 -0.3412  1.4991
   26CHL1   H2B 3079   0.313   4.686   6.812  0.6634 -0.7788  2.8621
   26CHL1   C20 3080   0.215   4.897   5.885  0.6488  0.0633  0.0814
   26CHL1   H20 3081   0.109   4.907   5.916 -0.1760 -1.2013 -2.0647
   26CHL1   C21 3082   0.222   4.743   5.848 -0.3094 -0.4921 -1.0674
   26CHL1  H21A 3083   0.295   4.727   5.767 -1.4582 -2.4772 -1.7794
   26CHL1  H21B 3084   0.125   4.706   5.808 -0.7954 -0.6898  0.2456
   26CHL1  H21C 3085   0.253   4.675   5.931  2.0342  1.2638 -0.4107
   26CHL1   C22 3086   0.220   4.979   5.751  0.0304  0.2213  0.0879
   26CHL1  H22A 3087   0.198   5.086   5.772  1.0562  0.8626 -1.8833
   26CHL1  H22B 3088   0.318   4.971   5.699 -0.3775  1.2383 -0.8735
   26CHL1   C23 3089   0.114   4.935   5.647 -0.5867 -0.4520 -0.6570
   26CHL1  H23A 3090   0.154   4.844   5.599  1.2917 -1.2088  2.0721
   26CHL1  H23B 3091   0.011   4.924   5.688 -0.2980 -4.2059 -0.6526
   26CHL1   C24 3092   0.109   5.048   5.548  0.4384 -0.6946 -0.2683
   26CHL1  H24A 3093   0.089   5.133   5.617  1.1756 -1.9567  1.5544
   26CHL1  H24B 3094   0.201   5.061   5.486 -0.4563  1.2527 -1.2942
   26CHL1   C25 3095  -0.011   5.046   5.452 -0.4439  0.1547 -0.6197
   26CHL1   H25 3096  -0.090   5.034   5.528  2.3976 -2.0887  2.2752
   26CHL1   C26 3097  -0.030   5.171   5.368 -0.2733 -0.1244  0.2720
   26CHL1  H26A 3098   0.058   5.182   5.302  0.3300  0.8377  1.1976
   26CHL1  H26B 3099  -0.126   5.166   5.312  0.6335 -0.9065 -1.2636
   26CHL1  H26C 3100  -0.039   5.259   5.435 -2.9311 -1.4632  1.8892
   26CHL1   C27 3101  -0.005   4.925   5.357  0.1885  0.5099 -0.2208
   26CHL1  H27A 3102   0.061   4.937   5.269 -1.3811 -0.1200 -1.5506
   26CHL1  H27B 3103   0.018   4.828   5.406 -2.3027 -1.9670 -3.4492
   26CHL1  H27C 3104  -0.109   4.913   5.319 -1.0994 -0.0328  3.1321
   27CHL1    C3 3105   6.039   2.980   6.818 -0.1666 -0.1703  0.4381
   27CHL1    H3 3106   6.147   3.003   6.807 -0.4178  0.2188 -1.5627
   27CHL1    O3 3107   6.003   3.001   6.954 -0.6210  0.2064  0.3508
   27CHL1   H3' 3108   5.909   2.984   6.965 -0.6142  1.3424  2.9061
   27CHL1    C4 3109   5.961   3.081   6.731 -1.1137  0.5596 -0.0697
   27CHL1   H4A 3110   5.851   3.066   6.735 -0.9107 -0.7834  1.6481
   27CHL1   H4B 3111   5.994   3.181   6.766 -0.8770  0.2021  0.7625
   27CHL1    C5 3112   5.987   3.052   6.585 -0.1669  0.3978  0.2313
   27CHL1    C6 3113   6.039   3.146   6.508 -0.3727 -0.3933  0.2037
   27CHL1    H6 3114   6.061   3.247   6.547 -2.3937  0.5120 -0.8453
   27CHL1    C7 3115   6.056   3.127   6.354  0.3591  0.0130 -0.3891
   27CHL1   H7A 3116   6.018   3.215   6.299 -0.5789  0.5188  1.0077
   27CHL1   H7B 3117   6.164   3.108   6.337  0.5050  0.2103  0.2619
   27CHL1    C8 3118   5.977   3.005   6.299  0.5522 -0.4863  0.4626
   27CHL1    H8 3119   5.871   3.037   6.306  0.2661 -1.6196  1.9003
   27CHL1   C14 3120   6.023   2.972   6.158  0.2509 -0.6546 -0.1433
   27CHL1   H14 3121   6.129   2.940   6.166  0.5647  0.1327 -1.0063
   27CHL1   C15 3122   6.026   3.092   6.059 -0.5756 -0.1705  0.0250
   27CHL1  H15A 3123   5.929   3.144   6.074 -1.1330 -1.2503  0.1733
   27CHL1  H15B 3124   6.119   3.153   6.067  0.9170 -1.8296 -2.9145
   27CHL1   C16 3125   6.030   3.023   5.920 -0.2331  0.0041 -0.4026
   27CHL1  H16A 3126   5.955   3.071   5.853  0.3438 -0.8115 -1.6920
   27CHL1  H16B 3127   6.132   3.042   5.878 -0.9127  0.3115 -1.9881
   27CHL1   C17 3128   6.008   2.872   5.947 -0.1905  0.3013 -0.2562
   27CHL1   H17 3129   6.112   2.832   5.946  0.0358  0.8570  0.2831
   27CHL1   C13 3130   5.951   2.859   6.089  0.1572  0.5535  0.4597
   27CHL1   C18 3131   5.800   2.889   6.070 -0.4084 -0.2412  0.8392
   27CHL1  H18A 3132   5.762   2.914   6.172  0.0754  1.1982  0.6984
   27CHL1  H18B 3133   5.776   2.976   6.004 -0.9793  0.5663  2.0592
   27CHL1  H18C 3134   5.745   2.801   6.031 -1.2119 -0.3627  2.1698
   27CHL1   C12 3135   5.978   2.733   6.183  0.0121  0.7006 -0.0820
   27CHL1  H12A 3136   5.920   2.641   6.161  0.7990 -1.1198  4.3301
   27CHL1  H12B 3137   6.085   2.706   6.168 -0.3571 -1.7986  1.2894
   27CHL1   C11 3138   5.939   2.752   6.330 -0.0168 -0.2601  0.4601
   27CHL1  H11A 3139   5.829   2.757   6.342  0.2825  0.6605  3.5595
   27CHL1  H11B 3140   5.977   2.663   6.385 -1.2076 -1.4645 -0.5739
   27CHL1    C9 3141   6.000   2.884   6.391 -0.0318 -0.1834  0.0766
   27CHL1    H9 3142   6.110   2.871   6.400 -0.1427 -0.6827  0.8278
   27CHL1   C10 3143   5.949   2.909   6.537  0.4149  0.1674  0.0806
   27CHL1   C19 3144   5.802   2.885   6.558 -0.2383  0.3398  0.4440
   27CHL1  H19A 3145   5.730   2.937   6.490 -1.3350  1.2092  2.1846
   27CHL1  H19B 3146   5.778   2.780   6.531 -0.1551  0.9269 -2.2168
   27CHL1  H19C 3147   5.756   2.907   6.657 -1.0237  1.6246 -0.1733
   27CHL1    C1 3148   6.030   2.811   6.636 -0.1411 -0.2630  0.3026
   27CHL1   H1A 3149   5.996   2.710   6.607 -3.4490  0.7922  0.0399
   27CHL1   H1B 3150   6.136   2.832   6.612  0.0720 -1.2131  0.3808
   27CHL1    C2 3151   6.004   2.833   6.789 -0.0799  0.2706  0.6079
   27CHL1   H2A 3152   6.069   2.768   6.851  1.3998 -0.7718 -1.8903
   27CHL1   H2B 3153   5.901   2.799   6.815 -1.1856  1.6752 -1.6334
   27CHL1   C20 3154   5.930   2.798   5.832 -0.0968 -0.1241  0.2442
   27CHL1   H20 3155   5.822   2.823   5.840 -0.0248  0.2292  0.1364
   27CHL1   C21 3156   5.955   2.649   5.843 -1.0293  0.0971  0.0752
   27CHL1  H21A 3157   6.049   2.629   5.787 -2.0576  0.4865 -1.8950
   27CHL1  H21B 3158   5.870   2.596   5.795 -0.1764  0.9582 -2.5780
   27CHL1  H21C 3159   5.949   2.617   5.949 -0.3106 -1.6637 -0.3617
   27CHL1   C22 3160   5.965   2.860   5.695 -0.2391 -0.2377 -0.0811
   27CHL1  H22A 3161   5.954   2.970   5.686  1.4623 -0.0458 -0.2406
   27CHL1  H22B 3162   6.073   2.842   5.675 -0.3532 -0.0272 -0.9228
   27CHL1   C23 3163   5.897   2.808   5.565  0.8115  1.4336 -0.3693
   27CHL1  H23A 3164   5.895   2.697   5.574 -0.4384  1.2734 -2.1972
   27CHL1  H23B 3165   5.790   2.837   5.569 -0.0279 -1.5387  2.0251
   27CHL1   C24 3166   5.950   2.839   5.426  0.3588 -0.0594 -0.0276
   27CHL1  H24A 3167   5.945   2.950   5.436 -1.1395 -0.1909  0.9300
   27CHL1  H24B 3168   6.057   2.809   5.423  1.1384  2.3325 -3.5971
   27CHL1   C25 3169   5.871   2.787   5.304 -0.1562  0.1697 -0.3658
   27CHL1   H25 3170   5.928   2.822   5.215 -0.8327 -0.9995 -1.2770
   27CHL1   C26 3171   5.855   2.635   5.305  0.7547  0.2011  0.4973
   27CHL1  H26A 3172   5.777   2.588   5.369  2.0929 -2.7334  0.1025
   27CHL1  H26B 3173   5.830   2.603   5.202  0.6236 -2.3116  1.2575
   27CHL1  H26C 3174   5.952   2.587   5.329  0.1290 -1.2310  0.2861
   27CHL1   C27 3175   5.735   2.852   5.293  0.2511  0.2694 -1.1404
   27CHL1  H27A 3176   5.731   2.962   5.302  1.6940  0.6409 -3.8679
   27CHL1  H27B 3177   5.668   2.811   5.371 -0.7168  1.4925 -1.3057
   27CHL1  H27C 3178   5.696   2.837   5.190 -0.9767 -1.0764 -0.5101
   28CHL1    C3 3179   4.357   2.683   7.094 -0.0155 -0.8622 -0.3250
   28CHL1    H3 3180   4.327   2.578   7.115 -1.3761 -0.8060 -1.7837
   28CHL1    O3 3181   4.339   2.753   7.221  0.2015 -0.4156  0.0982
   28CHL1   H3' 3182   4.245   2.745   7.238  0.0110 -2.2519 -1.3984
   28CHL1    C4 3183   4.502   2.686   7.036  0.2749 -0.1006 -0.0151
   28CHL1   H4A 3184   4.538   2.790   7.021 -2.0594  0.8078  0.1441
   28CHL1   H4B 3185   4.565   2.649   7.120  2.4291  3.1366 -0.0396
   28CHL1    C5 3186   4.511   2.609   6.910  0.6187  0.3592 -0.0146
   28CHL1    C6 3187   4.585   2.501   6.894  0.1960 -0.2354  0.3228
   28CHL1    H6 3188   4.652   2.468   6.974  0.5286  2.0640  1.0882
   28CHL1    C7 3189   4.603   2.427   6.769  0.3417  0.1957 -0.0363
   28CHL1   H7A 3190   4.708   2.408   6.738 -0.5201 -0.2253 -3.0025
   28CHL1   H7B 3191   4.555   2.327   6.773 -0.1224  0.3778 -0.8118
   28CHL1    C8 3192   4.546   2.501   6.642 -0.0020 -0.6322  0.3856
   28CHL1    H8 3193   4.612   2.586   6.614 -0.0203 -0.3783  1.0881
   28CHL1   C14 3194   4.547   2.411   6.523 -0.0727 -0.1498 -0.4415
   28CHL1   H14 3195   4.477   2.328   6.547 -1.2657  1.6531  3.0524
   28CHL1   C15 3196   4.687   2.373   6.473  0.4040  0.2600  0.2924
   28CHL1  H15A 3197   4.746   2.467   6.472 -1.7322  1.6678 -0.8545
   28CHL1  H15B 3198   4.734   2.292   6.534  0.9012  0.1632 -0.2085
   28CHL1   C16 3199   4.656   2.323   6.329 -0.2909 -0.2964  0.3109
   28CHL1  H16A 3200   4.736   2.361   6.261  0.8922 -0.8577  1.3389
   28CHL1  H16B 3201   4.674   2.213   6.326  0.3672 -0.1832 -0.1566
   28CHL1   C17 3202   4.507   2.373   6.299  0.3662  0.0880  0.3757
   28CHL1   H17 3203   4.442   2.284   6.319 -0.3078  0.0461 -1.8078
   28CHL1   C13 3204   4.482   2.482   6.404 -0.3879  0.1437  0.7069
   28CHL1   C18 3205   4.564   2.608   6.356 -0.5645 -0.0450 -0.2595
   28CHL1  H18A 3206   4.517   2.679   6.284  1.8931 -0.7156 -2.7058
   28CHL1  H18B 3207   4.593   2.675   6.440  1.8814 -1.1179 -0.1432
   28CHL1  H18C 3208   4.660   2.589   6.303 -0.8046 -1.0193 -0.3587
   28CHL1   C12 3209   4.337   2.517   6.435 -0.2465  0.0326 -0.6697
   28CHL1  H12A 3210   4.300   2.569   6.344  2.2279  1.7875 -0.7685
   28CHL1  H12B 3211   4.276   2.428   6.460 -0.4771  0.7530  1.4779
   28CHL1   C11 3212   4.328   2.617   6.557  0.0361 -0.8931  0.1644
   28CHL1  H11A 3213   4.364   2.713   6.515 -0.7409 -0.5246  0.3170
   28CHL1  H11B 3214   4.222   2.642   6.580  0.0441  0.2925 -0.9636
   28CHL1    C9 3215   4.412   2.567   6.678  0.3300  0.6403  0.7421
   28CHL1    H9 3216   4.349   2.483   6.716  1.0544  0.9227  2.7081
   28CHL1   C10 3217   4.414   2.659   6.800 -0.5609  0.1718 -0.5819
   28CHL1   C19 3218   4.453   2.799   6.749 -0.3346 -1.1245 -0.8395
   28CHL1  H19A 3219   4.467   2.872   6.832  1.7310  0.1437 -2.2198
   28CHL1  H19B 3220   4.543   2.795   6.684  1.7872 -3.8440  1.8838
   28CHL1  H19C 3221   4.369   2.837   6.688 -0.5174  1.6624  0.9886
   28CHL1    C1 3222   4.274   2.669   6.860 -0.3660  0.0932  0.0837
   28CHL1   H1A 3223   4.198   2.717   6.795 -1.1255  0.9697  1.5544
   28CHL1   H1B 3224   4.243   2.567   6.893  0.3879 -0.3182 -0.4588
   28CHL1    C2 3225   4.257   2.739   6.997  0.2566 -0.0732  0.1176
   28CHL1   H2A 3226   4.156   2.737   7.041  0.2914 -1.8965  0.1975
   28CHL1   H2B 3227   4.290   2.844   6.980 -2.1181  0.7907  0.5900
   28CHL1   C20 3228   4.485   2.401   6.144  0.1476 -0.1941 -0.2711
   28CHL1   H20 3229   4.558   2.481   6.118 -1.0344  0.9296 -0.2306
   28CHL1   C21 3230   4.350   2.473   6.111  0.2115 -0.4034  0.2265
   28CHL1  H21A 3231   4.261   2.421   6.153 -0.5239  1.5724  1.2063
   28CHL1  H21B 3232   4.350   2.472   6.000  2.1333 -2.7346  0.1647
   28CHL1  H21C 3233   4.345   2.579   6.143  1.0336 -0.6702  1.2802
   28CHL1   C22 3234   4.502   2.269   6.063 -0.2958  0.0836 -0.1698
   28CHL1  H22A 3235   4.591   2.218   6.105 -1.4359 -1.3672  0.5768
   28CHL1  H22B 3236   4.415   2.205   6.088  0.8136 -0.7835  1.6167
   28CHL1   C23 3237   4.525   2.293   5.913 -0.8954 -0.4748  0.9047
   28CHL1  H23A 3238   4.437   2.324   5.852  0.3959 -0.5695 -1.1204
   28CHL1  H23B 3239   4.605   2.370   5.904  0.6844 -2.1335 -0.1819
   28CHL1   C24 3240   4.585   2.165   5.848 -0.1165 -0.7226  0.4240
   28CHL1  H24A 3241   4.669   2.129   5.911 -0.5773  1.2966  2.3387
   28CHL1  H24B 3242   4.513   2.082   5.833  1.5508 -2.1656  0.1267
   28CHL1   C25 3243   4.660   2.193   5.710  0.6449  0.0884 -0.2816
   28CHL1   H25 3244   4.595   2.262   5.651 -0.2649  1.4853  2.1823
   28CHL1   C26 3245   4.809   2.234   5.717  0.2448  0.3659 -0.2175
   28CHL1  H26A 3246   4.828   2.314   5.792  1.8348  0.3128 -0.5092
   28CHL1  H26B 3247   4.866   2.146   5.754  1.6922  1.4582  0.2625
   28CHL1  H26C 3248   4.853   2.268   5.620  1.4041  2.8271  1.0473
   28CHL1   C27 3249   4.662   2.058   5.643  0.2634 -0.0776 -0.7156
   28CHL1  H27A 3250   4.728   1.987   5.696 -1.3892 -1.1748 -0.0402
   28CHL1  H27B 3251   4.554   2.033   5.636  0.3845 -0.5618 -0.8572
   28CHL1  H27C 3252   4.699   2.059   5.538  0.0209 -1.9920 -0.8445
   29CHL1    C3 3253   4.366   6.353   7.395  0.5910 -0.2331  0.5800
   29CHL1    H3 3254   4.414   6.453   7.402 -2.9360  1.5248  2.1297
   29CHL1    O3 3255   4.334   6.305   7.525  0.1104 -0.3941  0.5195
   29CHL1   H3' 3256   4.414   6.323   7.573  0.4620  0.0712 -0.2291
   29CHL1    C4 3257   4.235   6.367   7.304  0.1803 -0.1110  0.6135
   29CHL1   H4A 3258   4.180   6.274   7.330  1.9040 -0.8573  1.8176
   29CHL1   H4B 3259   4.184   6.457   7.345 -0.3903  0.3776 -1.1119
   29CHL1    C5 3260   4.262   6.372   7.153  1.0967  0.7677 -0.7112
   29CHL1    C6 3261   4.209   6.466   7.076  0.0151 -0.2864  0.7077
   29CHL1    H6 3262   4.137   6.533   7.125 -1.3335 -1.6949  0.7333
   29CHL1    C7 3263   4.242   6.485   6.929  0.6049 -0.2135  0.2102
   29CHL1   H7A 3264   4.150   6.521   6.878  1.0726  2.6439  1.1916
   29CHL1   H7B 3265   4.311   6.572   6.930  0.1386  0.1745 -0.5362
   29CHL1    C8 3266   4.311   6.362   6.867 -0.1455 -0.9209 -0.8628
   29CHL1    H8 3267   4.231   6.286   6.856 -0.6398 -1.0107  2.4554
   29CHL1   C14 3268   4.372   6.404   6.728 -0.1092  0.4274 -0.9704
   29CHL1   H14 3269   4.453   6.468   6.768  1.5067 -1.4273 -1.1058
   29CHL1   C15 3270   4.287   6.486   6.628 -0.1352  0.4073  1.0868
   29CHL1  H15A 3271   4.183   6.445   6.629 -0.8262  2.0837  0.9366
   29CHL1  H15B 3272   4.272   6.590   6.663 -0.3163  0.8586 -0.2834
   29CHL1   C16 3273   4.375   6.475   6.500  0.3993 -0.5735  0.2223
   29CHL1  H16A 3274   4.322   6.445   6.408  1.6630 -1.1753 -0.3356
   29CHL1  H16B 3275   4.426   6.572   6.479 -1.5993  0.5240  0.1514
   29CHL1   C17 3276   4.481   6.367   6.533  0.0392  0.8319 -0.2335
   29CHL1   H17 3277   4.576   6.415   6.566 -0.6488  2.0998 -0.0276
   29CHL1   C13 3278   4.436   6.291   6.657 -0.0312  0.0706  0.0733
   29CHL1   C18 3279   4.328   6.193   6.618 -0.4025  0.0200  0.3425
   29CHL1  H18A 3280   4.297   6.129   6.703  2.2359  0.6867  1.9421
   29CHL1  H18B 3281   4.238   6.245   6.578 -0.5613 -0.4750  0.0532
   29CHL1  H18C 3282   4.371   6.122   6.544 -0.6215 -0.3314  0.5513
   29CHL1   C12 3283   4.539   6.215   6.744  0.3076 -0.2796 -0.1087
   29CHL1  H12A 3284   4.568   6.120   6.694  0.9532  0.0081 -0.2893
   29CHL1  H12B 3285   4.623   6.286   6.763 -0.0479 -0.4735  2.5940
   29CHL1   C11 3286   4.484   6.183   6.886 -0.0115 -0.8354 -0.3630
   29CHL1  H11A 3287   4.417   6.095   6.871 -0.4110 -0.3683 -1.3781
   29CHL1  H11B 3288   4.568   6.148   6.950 -0.3946  1.5605  1.5935
   29CHL1    C9 3289   4.416   6.302   6.957  0.6245 -0.0621  0.9445
   29CHL1    H9 3290   4.496   6.379   6.959  2.2857 -1.6689 -0.4086
   29CHL1   C10 3291   4.365   6.272   7.108 -0.4707 -0.1944 -0.2054
   29CHL1   C19 3292   4.287   6.133   7.106 -1.2221 -0.5385 -0.8663
   29CHL1  H19A 3293   4.344   6.044   7.071  2.5812  0.8016  1.3908
   29CHL1  H19B 3294   4.264   6.119   7.214  1.5511  2.8520  0.3586
   29CHL1  H19C 3295   4.192   6.127   7.049 -0.9498  0.2199 -1.4212
   29CHL1    C1 3296   4.496   6.272   7.192 -0.1544 -0.7050  0.5864
   29CHL1   H1A 3297   4.574   6.206   7.149 -1.4116 -3.3675  2.1828
   29CHL1   H1B 3298   4.537   6.375   7.196  0.5255 -0.9152 -0.5952
   29CHL1    C2 3299   4.470   6.246   7.343 -0.1497 -0.1732  0.1020
   29CHL1   H2A 3300   4.557   6.240   7.411  0.0443 -1.3008 -0.2298
   29CHL1   H2B 3301   4.425   6.145   7.349 -2.3533  0.4167 -3.4852
   29CHL1   C20 3302   4.516   6.281   6.410 -0.0104 -0.4018  0.1127
   29CHL1   H20 3303   4.424   6.233   6.370  0.4987 -0.1698 -1.4026
   29CHL1   C21 3304   4.634   6.185   6.426 -0.6069  1.0513  0.0185
   29CHL1  H21A 3305   4.706   6.204   6.507 -1.4454 -1.2851  1.4138
   29CHL1  H21B 3306   4.687   6.173   6.329 -1.3568  1.4804 -0.4560
   29CHL1  H21C 3307   4.581   6.088   6.438 -0.3227  0.7836 -0.8321
   29CHL1   C22 3308   4.546   6.368   6.285  0.5077  0.4660  0.1401
   29CHL1  H22A 3309   4.463   6.441   6.269  1.4895  1.7024  0.4500
   29CHL1  H22B 3310   4.632   6.434   6.312 -1.0582  2.8085 -0.2759
   29CHL1   C23 3311   4.557   6.298   6.142  0.1315 -0.4871 -0.6997
   29CHL1  H23A 3312   4.638   6.223   6.151  1.3272  0.5094 -2.5352
   29CHL1  H23B 3313   4.460   6.245   6.126 -1.3830  0.9185  2.7970
   29CHL1   C24 3314   4.590   6.396   6.022 -0.5661 -0.7708  0.6065
   29CHL1  H24A 3315   4.506   6.468   6.026 -0.6882 -0.9828  2.4980
   29CHL1  H24B 3316   4.678   6.455   6.055  0.0251 -0.8245 -0.7694
   29CHL1   C25 3317   4.603   6.323   5.883  0.7002 -0.5621 -0.2674
   29CHL1   H25 3318   4.661   6.234   5.914 -0.0584 -0.4011  1.7773
   29CHL1   C26 3319   4.469   6.286   5.829  0.1665 -0.0120  0.2632
   29CHL1  H26A 3320   4.403   6.373   5.807 -2.0994 -1.8752 -0.6418
   29CHL1  H26B 3321   4.479   6.226   5.736 -1.6256 -0.9188  0.6137
   29CHL1  H26C 3322   4.407   6.219   5.892 -1.4792 -1.2143 -2.4543
   29CHL1   C27 3323   4.684   6.401   5.778 -0.4207  0.2697 -0.5171
   29CHL1  H27A 3324   4.634   6.497   5.753 -0.8456  0.4415  0.9411
   29CHL1  H27B 3325   4.780   6.425   5.829 -0.0198 -1.1701 -0.5478
   29CHL1  H27C 3326   4.700   6.333   5.691 -1.9177 -0.4733 -0.2329
   30CHL1    C3 3327   1.455   6.673   6.937  0.0058  0.6443 -0.0645
   30CHL1    H3 3328   1.346   6.678   6.960 -0.0439  3.3399 -0.5670
   30CHL1    O3 3329   1.508   6.705   7.066 -0.0627 -0.4316 -0.5087
   30CHL1   H3' 3330   1.601   6.712   7.046  0.2854 -3.0329 -0.2110
   30CHL1    C4 3331   1.495   6.533   6.902 -0.4156  0.2067 -0.0326
   30CHL1   H4A 3332   1.606   6.523   6.905 -0.1429 -0.0099 -4.4677
   30CHL1   H4B 3333   1.456   6.464   6.980 -0.1649  2.0149  1.7615
   30CHL1    C5 3334   1.445   6.490   6.761 -0.2786 -0.6037 -0.5915
   30CHL1    C6 3335   1.380   6.374   6.745  0.0985  0.0814 -0.4719
   30CHL1    H6 3336   1.360   6.314   6.835 -1.1799  0.9806 -0.1228
   30CHL1    C7 3337   1.333   6.323   6.614  0.4976  0.3214  0.0697
   30CHL1   H7A 3338   1.345   6.214   6.595 -0.9929 -0.4463  2.8829
   30CHL1   H7B 3339   1.223   6.341   6.605  0.7420  1.5765 -0.5438
   30CHL1    C8 3340   1.394   6.401   6.497 -0.3469  0.7593  0.4260
   30CHL1    H8 3341   1.498   6.367   6.478 -0.2581  1.5165 -0.5450
   30CHL1   C14 3342   1.314   6.374   6.369 -0.4455 -0.7223  0.0482
   30CHL1   H14 3343   1.210   6.406   6.393  0.5751  2.5850  0.4988
   30CHL1   C15 3344   1.295   6.228   6.324 -0.3907 -0.6881 -0.0862
   30CHL1  H15A 3345   1.391   6.173   6.313 -1.1003 -2.0916  0.4135
   30CHL1  H15B 3346   1.217   6.168   6.376 -0.5286  1.3432  2.2098
   30CHL1   C16 3347   1.237   6.250   6.182 -0.8900  0.0060 -0.2024
   30CHL1  H16A 3348   1.297   6.196   6.106  2.6275  3.8282 -0.4586
   30CHL1  H16B 3349   1.131   6.215   6.181  0.2370 -3.9817  1.6668
   30CHL1   C17 3350   1.242   6.406   6.147  1.4067 -0.1055 -0.2149
   30CHL1   H17 3351   1.143   6.440   6.184  1.1928 -0.7246 -0.2094
   30CHL1   C13 3352   1.349   6.466   6.248 -0.1639  0.9237 -0.0982
   30CHL1   C18 3353   1.484   6.418   6.202 -0.8594 -0.3898  0.1743
   30CHL1  H18A 3354   1.484   6.314   6.163  2.0450 -0.6891  0.7202
   30CHL1  H18B 3355   1.540   6.493   6.142  0.4193 -1.2292  0.2744
   30CHL1  H18C 3356   1.551   6.409   6.291 -0.2153  0.9873 -0.1554
   30CHL1   C12 3357   1.343   6.610   6.283 -0.1297 -0.3829 -0.0330
   30CHL1  H12A 3358   1.351   6.678   6.195  0.0696  1.0989  1.1005
   30CHL1  H12B 3359   1.241   6.622   6.326 -0.8528 -0.8211 -1.5656
   30CHL1   C11 3360   1.438   6.640   6.399 -0.4401  0.0080  0.7069
   30CHL1  H11A 3361   1.541   6.619   6.364 -0.7638 -2.3445  0.9961
   30CHL1  H11B 3362   1.424   6.748   6.420 -0.2090 -0.2981  2.7240
   30CHL1    C9 3363   1.402   6.553   6.522  0.5296 -0.3022 -0.3808
   30CHL1    H9 3364   1.297   6.573   6.551  0.7974 -1.6984  1.8743
   30CHL1   C10 3365   1.480   6.588   6.648  0.1157  0.1988 -0.1100
   30CHL1   C19 3366   1.636   6.573   6.619  0.1931 -0.3188 -0.3373
   30CHL1  H19A 3367   1.704   6.586   6.706  2.4314 -1.3822 -1.8003
   30CHL1  H19B 3368   1.651   6.469   6.581 -2.4619 -0.5028 -1.0612
   30CHL1  H19C 3369   1.669   6.644   6.540 -2.4876  1.2122 -0.1713
   30CHL1    C1 3370   1.467   6.739   6.685  0.2848  0.1077 -1.0651
   30CHL1   H1A 3371   1.536   6.806   6.631  1.1493 -0.7042 -0.9918
   30CHL1   H1B 3372   1.365   6.768   6.652 -0.0316  0.3782  0.0851
   30CHL1    C2 3373   1.498   6.773   6.832  0.2181  0.1292 -0.5233
   30CHL1   H2A 3374   1.450   6.868   6.866  1.9745  1.7309 -2.2614
   30CHL1   H2B 3375   1.608   6.781   6.838  0.2989 -1.2200 -0.0029
   30CHL1   C20 3376   1.258   6.426   5.993 -0.4046  0.3642  0.0737
   30CHL1   H20 3377   1.355   6.380   5.965  0.4909  2.1167  0.1252
   30CHL1   C21 3378   1.264   6.582   5.969  0.4531  0.1170 -0.8307
   30CHL1  H21A 3379   1.184   6.630   6.029  0.8765 -1.8039  1.4116
   30CHL1  H21B 3380   1.252   6.604   5.860 -1.0972 -1.9034 -1.1179
   30CHL1  H21C 3381   1.364   6.598   6.014  0.1307 -1.2790  0.4519
   30CHL1   C22 3382   1.156   6.362   5.905 -0.0458  0.0462  0.8069
   30CHL1  H22A 3383   1.167   6.252   5.918  0.9135 -0.3286 -2.3095
   30CHL1  H22B 3384   1.061   6.407   5.940  0.9406  1.7356  1.3836
   30CHL1   C23 3385   1.175   6.389   5.752 -0.0967  0.1016 -0.1064
   30CHL1  H23A 3386   1.147   6.493   5.726 -0.1939  0.0011 -0.4066
   30CHL1  H23B 3387   1.285   6.388   5.737  0.2136  1.1903  1.8180
   30CHL1   C24 3388   1.098   6.302   5.658 -0.3253  0.4554  0.1944
   30CHL1  H24A 3389   1.131   6.197   5.676  2.0093  0.9900 -0.6429
   30CHL1  H24B 3390   0.991   6.317   5.681 -0.2273  2.2211 -0.3340
   30CHL1   C25 3391   1.125   6.352   5.513  0.3367 -0.0717 -0.3774
   30CHL1   H25 3392   1.136   6.462   5.524  3.8702 -0.5258  2.4190
   30CHL1   C26 3393   1.263   6.297   5.453  0.2955 -0.0021  0.2051
   30CHL1  H26A 3394   1.285   6.334   5.351  0.2194  1.0031  0.5501
   30CHL1  H26B 3395   1.345   6.320   5.524  0.4388 -0.1446  0.0872
   30CHL1  H26C 3396   1.267   6.185   5.456  2.6047  0.0359  0.7217
   30CHL1   C27 3397   1.010   6.310   5.420  0.4800  0.1070  0.0627
   30CHL1  H27A 3398   0.997   6.200   5.415  2.9172 -0.2504  0.5956
   30CHL1  H27B 3399   0.917   6.357   5.460  0.5154  0.7973 -0.6500
   30CHL1  H27C 3400   1.031   6.348   5.318  1.1234 -2.0655 -0.6651
   31CHL1    C3 3401   4.668   5.263   7.085 -0.5967  0.3742  0.2572
   31CHL1    H3 3402   4.768   5.219   7.069 -1.2173 -0.8087 -0.4727
   31CHL1    O3 3403   4.660   5.294   7.217 -0.5425 -1.1380  0.1872
   31CHL1   H3' 3404   4.574   5.333   7.231 -1.0272 -1.8454 -0.7798
   31CHL1    C4 3405   4.669   5.389   6.999  0.8939 -0.3204 -0.2946
   31CHL1   H4A 3406   4.577   5.437   7.036 -0.5253 -3.1057  0.0205
   31CHL1   H4B 3407   4.750   5.461   7.025 -0.3443  1.1949 -0.5141
   31CHL1    C5 3408   4.655   5.363   6.850  0.3958  0.4379 -0.2238
   31CHL1    C6 3409   4.738   5.411   6.765  0.3829 -0.6208  0.4199
   31CHL1    H6 3410   4.810   5.490   6.792 -0.2623  0.2530 -0.3706
   31CHL1    C7 3411   4.729   5.391   6.613 -0.3312  0.4816 -0.2772
   31CHL1   H7A 3412   4.758   5.480   6.553 -1.0499  0.6973 -0.3194
   31CHL1   H7B 3413   4.807   5.315   6.593 -0.4474  0.3438 -0.2087
   31CHL1    C8 3414   4.584   5.351   6.572 -0.0535  0.4081  0.4842
   31CHL1    H8 3415   4.514   5.436   6.586 -0.9426 -0.5482  2.2986
   31CHL1   C14 3416   4.589   5.316   6.418 -0.6175  0.0505  0.4542
   31CHL1   H14 3417   4.650   5.223   6.409 -2.5808 -1.2289 -0.3717
   31CHL1   C15 3418   4.648   5.419   6.312  0.2883 -0.1800 -0.4938
   31CHL1  H15A 3419   4.602   5.516   6.341  1.1067 -0.1987  0.9448
   31CHL1  H15B 3420   4.759   5.429   6.311  0.4380 -0.8865  1.9540
   31CHL1   C16 3421   4.599   5.370   6.170 -0.1894 -0.9945 -0.1648
   31CHL1  H16A 3422   4.555   5.465   6.132  1.0288  0.0154  0.8290
   31CHL1  H16B 3423   4.687   5.348   6.106 -2.5246 -3.2701 -2.8437
   31CHL1   C17 3424   4.502   5.253   6.200 -0.0498  0.8046 -0.0734
   31CHL1   H17 3425   4.569   5.165   6.188 -0.0250  0.6441  1.0991
   31CHL1   C13 3426   4.462   5.267   6.351 -0.1974 -0.1125 -0.1775
   31CHL1   C18 3427   4.354   5.388   6.348 -0.2432  0.3209 -0.5126
   31CHL1  H18A 3428   4.262   5.337   6.312  0.5170 -1.2063 -0.3767
   31CHL1  H18B 3429   4.336   5.427   6.451  0.4314  0.8991 -0.6114
   31CHL1  H18C 3430   4.383   5.466   6.276 -1.5114  1.2073 -0.0963
   31CHL1   C12 3431   4.422   5.144   6.439 -0.4547 -0.4093 -0.3617
   31CHL1  H12A 3432   4.318   5.117   6.410 -1.3295  0.3064  1.8896
   31CHL1  H12B 3433   4.478   5.052   6.411 -1.1527 -1.0161  0.1682
   31CHL1   C11 3434   4.413   5.174   6.593 -0.1213 -0.2184 -0.4978
   31CHL1  H11A 3435   4.337   5.253   6.612  0.5320  0.6242 -1.2452
   31CHL1  H11B 3436   4.385   5.089   6.658  0.5756  0.0254  0.1397
   31CHL1    C9 3437   4.541   5.230   6.652  0.4077 -0.0163 -0.0094
   31CHL1    H9 3438   4.620   5.152   6.649 -0.9459 -1.4294 -0.0942
   31CHL1   C10 3439   4.539   5.265   6.808 -0.4487  0.0392  0.8482
   31CHL1   C19 3440   4.404   5.345   6.833  0.0594 -0.0543  0.3086
   31CHL1  H19A 3441   4.394   5.376   6.939  2.4405  0.5470  0.3999
   31CHL1  H19B 3442   4.388   5.433   6.768  1.9656 -0.1036 -0.2915
   31CHL1  H19C 3443   4.319   5.274   6.821 -0.1029 -0.0193  1.1883
   31CHL1    C1 3444   4.536   5.137   6.903  0.5358 -0.0148  0.6391
   31CHL1   H1A 3445   4.437   5.087   6.888 -0.5048  2.2742 -0.6498
   31CHL1   H1B 3446   4.624   5.079   6.868 -1.4483 -3.6669  1.1984
   31CHL1    C2 3447   4.555   5.161   7.056 -0.7219 -0.0591 -0.3252
   31CHL1   H2A 3448   4.589   5.065   7.100  1.9294  0.9621  0.0357
   31CHL1   H2B 3449   4.459   5.194   7.099 -0.6607  0.1347 -0.3334
   31CHL1   C20 3450   4.391   5.250   6.093 -0.0094  0.7730  0.3694
   31CHL1   H20 3451   4.320   5.335   6.103  0.0630  0.8778  0.0165
   31CHL1   C21 3452   4.307   5.132   6.121  0.4616 -0.2600 -0.4549
   31CHL1  H21A 3453   4.370   5.041   6.134  0.1815 -0.2810  0.8692
   31CHL1  H21B 3454   4.240   5.100   6.038 -1.2015 -0.5408  0.9392
   31CHL1  H21C 3455   4.244   5.143   6.212 -1.1976  2.6223 -1.8237
   31CHL1   C22 3456   4.444   5.241   5.948 -0.1598  0.8202  0.0644
   31CHL1  H22A 3457   4.528   5.311   5.929 -0.0214  1.1045  1.5948
   31CHL1  H22B 3458   4.475   5.137   5.926  1.7076  1.6786 -1.6083
   31CHL1   C23 3459   4.334   5.276   5.847 -1.0630  0.2338  0.0255
   31CHL1  H23A 3460   4.260   5.193   5.846  0.3496 -1.0809  0.0580
   31CHL1  H23B 3461   4.283   5.367   5.884  0.6098  0.8621  0.9017
   31CHL1   C24 3462   4.374   5.285   5.700 -0.3286 -0.1148  0.9530
   31CHL1  H24A 3463   4.440   5.372   5.719  0.3784 -0.9716  2.6554
   31CHL1  H24B 3464   4.424   5.193   5.662  0.8227  0.8552  0.0194
   31CHL1   C25 3465   4.265   5.322   5.608 -0.2414  0.3852  0.6751
   31CHL1   H25 3466   4.191   5.240   5.619  2.2053 -2.2055 -0.9017
   31CHL1   C26 3467   4.194   5.450   5.645 -0.3178 -0.2789  0.0562
   31CHL1  H26A 3468   4.136   5.490   5.559 -3.2376 -0.4921  1.7996
   31CHL1  H26B 3469   4.137   5.448   5.740  1.6758  1.1522  1.3906
   31CHL1  H26C 3470   4.275   5.525   5.664 -1.0566  1.3343 -2.6887
   31CHL1   C27 3471   4.309   5.320   5.456  0.3128  0.6500 -0.9247
   31CHL1  H27A 3472   4.220   5.350   5.396 -0.6585 -1.4297 -0.6034
   31CHL1  H27B 3473   4.393   5.391   5.444  0.1943  0.7447 -1.2116
   31CHL1  H27C 3474   4.340   5.223   5.413 -0.4637 -0.2922  0.5645
   32CHL1    C3 3475   0.754   4.273   6.717 -0.4708 -0.2222  0.0630
   32CHL1    H3 3476   0.707   4.179   6.681  0.8118 -0.9462  0.2032
   32CHL1    O3 3477   0.789   4.263   6.857  0.3750 -0.4287  0.3178
   32CHL1   H3' 3478   0.842   4.342   6.869 -0.0207  0.1368 -1.3809
   32CHL1    C4 3479   0.886   4.307   6.643 -0.2813  0.0768 -0.3865
   32CHL1   H4A 3480   0.936   4.397   6.685  0.8011 -0.9465  0.5689
   32CHL1   H4B 3481   0.952   4.220   6.663 -2.2361 -0.7051  3.6477
   32CHL1    C5 3482   0.867   4.325   6.492  0.4630 -0.2605 -0.7696
   32CHL1    C6 3483   0.926   4.244   6.408 -0.0658  0.0111 -0.0805
   32CHL1    H6 3484   0.989   4.159   6.439 -1.4534 -0.2520  2.2960
   32CHL1    C7 3485   0.913   4.243   6.259  0.3949  0.2989 -0.4945
   32CHL1   H7A 3486   1.012   4.232   6.209  0.7915  0.5542  0.2260
   32CHL1   H7B 3487   0.846   4.157   6.238 -0.0275  0.0348  1.7386
   32CHL1    C8 3488   0.846   4.379   6.213 -0.0534  0.6155  0.4502
   32CHL1    H8 3489   0.922   4.459   6.224  1.1028 -0.5924  1.7966
   32CHL1   C14 3490   0.806   4.366   6.066 -0.1908  0.2914  0.1155
   32CHL1   H14 3491   0.721   4.295   6.062  0.2186 -0.3031  1.3913
   32CHL1   C15 3492   0.903   4.305   5.963  0.5616  0.1470  0.3823
   32CHL1  H15A 3493   1.011   4.326   5.977  1.4469 -2.4537 -1.6599
   32CHL1  H15B 3494   0.899   4.194   5.964 -0.1350  0.0663 -2.5700
   32CHL1   C16 3495   0.842   4.352   5.829 -0.2890  0.1333  0.2801
   32CHL1  H16A 3496   0.918   4.408   5.770 -0.7816  1.5589  0.9742
   32CHL1  H16B 3497   0.808   4.274   5.757 -1.8637  2.5235 -1.7311
   32CHL1   C17 3498   0.718   4.444   5.855 -0.1658 -0.2988 -0.1747
   32CHL1   H17 3499   0.633   4.374   5.865 -0.3388 -0.2759 -1.3171
   32CHL1   C13 3500   0.747   4.490   6.003 -0.1814 -0.6172 -0.0375
   32CHL1   C18 3501   0.853   4.606   5.995  0.4457 -0.0119 -0.2047
   32CHL1  H18A 3502   0.937   4.582   5.927 -1.2709 -0.2716 -2.3866
   32CHL1  H18B 3503   0.808   4.703   5.964  2.2800  0.9364 -0.0467
   32CHL1  H18C 3504   0.892   4.636   6.094 -1.6307  1.0313  0.3714
   32CHL1   C12 3505   0.627   4.528   6.087  0.5709  0.1301  0.3820
   32CHL1  H12A 3506   0.577   4.621   6.055  1.2883 -0.1096 -1.5874
   32CHL1  H12B 3507   0.558   4.441   6.080  2.0222 -1.0485  0.1368
   32CHL1   C11 3508   0.662   4.544   6.241 -0.5765  0.5444  0.0556
   32CHL1  H11A 3509   0.735   4.626   6.261 -0.1762 -0.2350  1.9709
   32CHL1  H11B 3510   0.576   4.570   6.306  0.3574 -0.2888  1.7006
   32CHL1    C9 3511   0.723   4.416   6.299 -0.1839  0.4299  0.1382
   32CHL1    H9 3512   0.642   4.340   6.296 -0.1784  0.3798  0.9668
   32CHL1   C10 3513   0.760   4.426   6.448  0.6242  0.9684 -0.4835
   32CHL1   C19 3514   0.813   4.561   6.480  0.3713 -0.0260  0.4453
   32CHL1  H19A 3515   0.737   4.641   6.464  2.1561  1.7492  0.4624
   32CHL1  H19B 3516   0.844   4.578   6.585  2.3733  0.0656 -0.1318
   32CHL1  H19C 3517   0.906   4.576   6.421  0.5198 -0.5372  0.5476
   32CHL1    C1 3518   0.630   4.411   6.533 -0.0914  0.2658 -0.4446
   32CHL1   H1A 3519   0.558   4.492   6.508 -1.7026 -0.5755  1.2111
   32CHL1   H1B 3520   0.578   4.318   6.499  2.9770 -1.9324  0.4300
   32CHL1    C2 3521   0.649   4.386   6.686  0.2100 -0.4340 -0.5858
   32CHL1   H2A 3522   0.555   4.357   6.737  0.2818  2.5282  1.4629
   32CHL1   H2B 3523   0.689   4.478   6.733  1.3341 -1.6062  0.8511
   32CHL1   C20 3524   0.702   4.545   5.745  0.1156 -0.1775 -0.0038
   32CHL1   H20 3525   0.790   4.610   5.727  1.4278 -2.1645 -1.0244
   32CHL1   C21 3526   0.586   4.641   5.789  0.0763  0.4516 -0.3301
   32CHL1  H21A 3527   0.527   4.662   5.698 -1.6357 -1.9615  0.1166
   32CHL1  H21B 3528   0.617   4.730   5.847  3.3910 -0.9172  0.2256
   32CHL1  H21C 3529   0.519   4.572   5.845 -0.1808 -1.0279 -2.3346
   32CHL1   C22 3530   0.675   4.475   5.613 -0.1568 -0.6323 -0.0258
   32CHL1  H22A 3531   0.748   4.394   5.593  0.7600  0.2883 -0.5098
   32CHL1  H22B 3532   0.578   4.421   5.608 -0.2304 -0.4273 -1.1304
   32CHL1   C23 3533   0.677   4.569   5.493 -0.0953  0.1562 -0.0515
   32CHL1  H23A 3534   0.597   4.646   5.492  0.5083  0.8838 -3.3172
   32CHL1  H23B 3535   0.768   4.631   5.506  2.4725 -2.8949 -1.9752
   32CHL1   C24 3536   0.676   4.501   5.363 -0.7044 -0.0971 -0.3466
   32CHL1  H24A 3537   0.766   4.440   5.340 -0.6989 -0.8395  1.4712
   32CHL1  H24B 3538   0.605   4.415   5.373  0.0751 -0.7557 -0.3552
   32CHL1   C25 3539   0.639   4.580   5.235 -0.2513  0.4227 -0.5030
   32CHL1   H25 3540   0.548   4.638   5.261 -0.1450 -0.0510  1.0760
   32CHL1   C26 3541   0.747   4.682   5.207  0.6660 -0.0994 -0.6381
   32CHL1  H26A 3542   0.756   4.751   5.293  2.2276 -1.9768  0.8002
   32CHL1  H26B 3543   0.850   4.640   5.206  1.1391  0.9811  0.6075
   32CHL1  H26C 3544   0.745   4.739   5.111  0.9924  1.2597  0.1333
   32CHL1   C27 3545   0.611   4.499   5.107 -0.3493 -0.8565  0.4143
   32CHL1  H27A 3546   0.589   4.567   5.022  0.1138  0.2443  1.1478
   32CHL1  H27B 3547   0.698   4.432   5.094 -0.3664 -0.4743 -2.1121
   32CHL1  H27C 3548   0.518   4.439   5.118 -1.0704 -0.0259 -0.9526
   33CHL1    C3 3549   0.723   3.045   6.978 -0.0161 -0.3692 -0.1673
   33CHL1    H3 3550   0.676   3.143   6.957  1.8654  0.4873 -0.6601
   33CHL1    O3 3551   0.674   2.997   7.099  0.2094 -0.3494 -0.8048
   33CHL1   H3' 3552   0.727   2.920   7.118 -0.6954 -0.6136  0.8492
   33CHL1    C4 3553   0.683   2.944   6.871 -1.0774  0.5343  0.3522
   33CHL1   H4A 3554   0.730   2.849   6.903  0.7486  2.3189  3.4597
   33CHL1   H4B 3555   0.572   2.940   6.883 -1.4465 -2.0061 -2.6768
   33CHL1    C5 3556   0.727   2.979   6.731 -0.0587 -0.4995 -0.1519
   33CHL1    C6 3557   0.640   2.992   6.630  0.6736  0.3318 -0.3912
   33CHL1    H6 3558   0.539   2.957   6.653  0.6780 -0.1278 -1.0302
   33CHL1    C7 3559   0.683   3.021   6.495 -0.2738  0.4625 -0.0480
   33CHL1   H7A 3560   0.626   2.958   6.424  0.9832  0.5630 -1.1855
   33CHL1   H7B 3561   0.663   3.129   6.482 -1.7287 -0.0115 -2.1897
   33CHL1    C8 3562   0.838   3.003   6.469  0.0388  0.0324  0.9055
   33CHL1    H8 3563   0.865   2.895   6.458  2.6412  0.5887  1.2215
   33CHL1   C14 3564   0.883   3.087   6.346 -0.2815 -0.4188 -0.7308
   33CHL1   H14 3565   0.839   3.189   6.360 -0.1526  0.0125 -2.9979
   33CHL1   C15 3566   0.816   3.052   6.208  0.1645 -0.3944 -1.0129
   33CHL1  H15A 3567   0.790   2.945   6.196 -0.8200 -0.2828 -0.0647
   33CHL1  H15B 3568   0.720   3.108   6.211 -0.2546 -0.9609  3.6709
   33CHL1   C16 3569   0.903   3.114   6.105 -0.5518  0.3142  0.3259
   33CHL1  H16A 3570   0.952   3.030   6.050 -2.2889 -1.1734  0.9346
   33CHL1  H16B 3571   0.857   3.181   6.029 -0.7435  2.4977  2.2527
   33CHL1   C17 3572   1.018   3.191   6.182  0.4082  0.2156  0.0551
   33CHL1   H17 3573   0.985   3.295   6.201  1.4772  0.5169  0.3428
   33CHL1   C13 3574   1.030   3.114   6.316 -0.2151  1.1915  0.2639
   33CHL1   C18 3575   1.105   2.981   6.297 -0.0509 -0.0563  0.2577
   33CHL1  H18A 3576   1.084   2.947   6.193 -0.9028 -0.2387  0.4787
   33CHL1  H18B 3577   1.214   2.988   6.314  0.4701 -0.4336 -2.4256
   33CHL1  H18C 3578   1.073   2.890   6.353  2.4947 -0.0527  1.8787
   33CHL1   C12 3579   1.094   3.177   6.437 -0.5357 -0.6292 -0.5233
   33CHL1  H12A 3580   1.204   3.197   6.443 -1.0470  2.4173  0.1859
   33CHL1  H12B 3581   1.052   3.280   6.440  1.3880  0.1861  0.1895
   33CHL1   C11 3582   1.059   3.091   6.561 -0.1893 -0.3741 -0.3886
   33CHL1  H11A 3583   1.108   2.992   6.568 -4.2779 -2.4827  2.3686
   33CHL1  H11B 3584   1.108   3.143   6.647  0.3818 -2.0321  0.3371
   33CHL1    C9 3585   0.902   3.066   6.590 -0.6346 -0.0430  0.7599
   33CHL1    H9 3586   0.859   3.168   6.588 -0.2619  0.1088 -0.5383
   33CHL1   C10 3587   0.880   3.008   6.722 -0.2046  0.3634 -0.7763
   33CHL1   C19 3588   0.943   2.869   6.738 -0.1912 -0.0269  0.1592
   33CHL1  H19A 3589   0.927   2.823   6.838 -0.6733 -0.4866 -0.1276
   33CHL1  H19B 3590   0.918   2.795   6.659  1.6581 -0.8671  0.2866
   33CHL1  H19C 3591   1.053   2.882   6.744  0.1556 -2.6993  1.0784
   33CHL1    C1 3592   0.933   3.102   6.835  0.5882  0.4001 -0.2171
   33CHL1   H1A 3593   1.041   3.083   6.821  0.9417  1.0427  1.4173
   33CHL1   H1B 3594   0.908   3.206   6.807  2.5032  0.9253 -0.0943
   33CHL1    C2 3595   0.877   3.060   6.973  0.8464  0.2749 -0.1364
   33CHL1   H2A 3596   0.918   3.128   7.050  1.3889 -0.3531  0.1449
   33CHL1   H2B 3597   0.927   2.965   7.004 -0.4053 -0.7440 -1.1104
   33CHL1   C20 3598   1.141   3.210   6.093 -0.6068 -0.1435 -0.0960
   33CHL1   H20 3599   1.178   3.111   6.057  1.6825  0.6900 -0.2187
   33CHL1   C21 3600   1.257   3.272   6.183  0.4185  0.3004  0.3228
   33CHL1  H21A 3601   1.323   3.346   6.133 -0.0067  1.0671  0.8706
   33CHL1  H21B 3602   1.311   3.197   6.245  1.5372 -1.4544 -2.5517
   33CHL1  H21C 3603   1.219   3.345   6.257 -0.1366 -0.1357  0.4754
   33CHL1   C22 3604   1.118   3.298   5.975  0.0328 -0.3634  0.9182
   33CHL1  H22A 3605   1.027   3.266   5.919 -0.7460  1.1430  1.2770
   33CHL1  H22B 3606   1.098   3.403   6.003  0.0853  0.2427 -1.1657
   33CHL1   C23 3607   1.228   3.306   5.867 -0.0597 -0.0934  0.3135
   33CHL1  H23A 3608   1.314   3.366   5.904 -0.3086  0.6858 -0.3525
   33CHL1  H23B 3609   1.261   3.200   5.856  0.6937  0.1456  0.2284
   33CHL1   C24 3610   1.200   3.373   5.725 -0.7654  0.5539 -0.1587
   33CHL1  H24A 3611   1.091   3.356   5.715 -0.7309 -1.2124  1.7962
   33CHL1  H24B 3612   1.213   3.484   5.730 -0.2840  0.5451 -1.0112
   33CHL1   C25 3613   1.278   3.306   5.609 -0.2639 -0.2778 -0.2301
   33CHL1   H25 3614   1.280   3.195   5.617  1.5631 -0.2995 -0.5255
   33CHL1   C26 3615   1.219   3.347   5.469 -0.2034  0.6674  0.0077
   33CHL1  H26A 3616   1.109   3.330   5.481 -0.9649  3.9256 -1.3958
   33CHL1  H26B 3617   1.242   3.453   5.448 -0.9516  0.6416 -1.0032
   33CHL1  H26C 3618   1.266   3.282   5.393 -0.0591  0.9770 -0.1656
   33CHL1   C27 3619   1.426   3.352   5.597 -0.3935 -0.1305 -0.2687
   33CHL1  H27A 3620   1.483   3.323   5.688 -0.5791  0.7811  0.1435
   33CHL1  H27B 3621   1.476   3.311   5.507 -1.3440 -2.3866  0.1583
   33CHL1  H27C 3622   1.424   3.463   5.590  4.0039  0.1815  0.5592
   34CHL1    C3 3623   5.681   5.594   6.648 -0.2687  0.5107 -0.1394
   34CHL1    H3 3624   5.610   5.511   6.627  1.5320 -0.9975 -0.5931
   34CHL1    O3 3625   5.663   5.625   6.789  0.2782  0.4925 -0.3573
   34CHL1   H3' 3626   5.580   5.672   6.790 -0.4764 -0.7792  1.2333
   34CHL1    C4 3627   5.826   5.530   6.628  0.5548 -0.3852 -0.4449
   34CHL1   H4A 3628   5.895   5.598   6.683 -0.1632  0.0729 -0.0948
   34CHL1   H4B 3629   5.836   5.432   6.678  0.5647 -0.1646 -0.0120
   34CHL1    C5 3630   5.871   5.515   6.491 -0.7706 -0.5087 -0.7603
   34CHL1    C6 3631   5.911   5.399   6.448  0.1822 -0.5013 -0.3178
   34CHL1    H6 3632   5.913   5.316   6.520  0.8052 -0.4130 -0.2295
   34CHL1    C7 3633   5.967   5.373   6.316 -0.3726  0.2660  0.1848
   34CHL1   H7A 3634   6.069   5.328   6.316  0.9706  3.0731 -0.9964
   34CHL1   H7B 3635   5.901   5.298   6.267 -3.6446  0.9765  3.1402
   34CHL1    C8 3636   5.989   5.510   6.238 -0.3827  0.3867 -0.1193
   34CHL1    H8 3637   6.085   5.549   6.277  1.0199 -0.6776 -2.3299
   34CHL1   C14 3638   6.003   5.481   6.093 -0.8396  0.4069  0.2939
   34CHL1   H14 3639   5.906   5.441   6.057 -0.1008 -1.3175  0.1517
   34CHL1   C15 3640   6.109   5.379   6.062 -0.0572  0.2442 -0.7707
   34CHL1  H15A 3641   6.204   5.407   6.112  0.3036  1.2322 -1.9446
   34CHL1  H15B 3642   6.083   5.274   6.090 -1.7896  1.2107  1.4553
   34CHL1   C16 3643   6.147   5.409   5.913 -0.2141 -0.4975  0.3708
   34CHL1  H16A 3644   6.255   5.418   5.888 -0.8896  1.0341 -2.4909
   34CHL1  H16B 3645   6.109   5.326   5.849 -2.5408 -0.0971  1.1331
   34CHL1   C17 3646   6.058   5.527   5.877  0.3929  0.6174 -0.0082
   34CHL1   H17 3647   5.965   5.474   5.847  0.2849  0.2567  0.9172
   34CHL1   C13 3648   6.030   5.600   6.007  0.3100  0.3334 -0.2817
   34CHL1   C18 3649   6.167   5.663   6.048  0.0190 -0.5774 -0.3320
   34CHL1  H18A 3650   6.259   5.601   6.044  0.5954  0.2052  0.5075
   34CHL1  H18B 3651   6.203   5.751   5.990 -0.5595 -0.2802 -0.2436
   34CHL1  H18C 3652   6.162   5.695   6.155 -2.6148 -0.4191 -0.4302
   34CHL1   C12 3653   5.916   5.706   6.021 -0.1435 -0.5258 -0.2552
   34CHL1  H12A 3654   5.960   5.790   5.964  0.0847  1.2752  2.3972
   34CHL1  H12B 3655   5.822   5.660   5.984 -0.5449 -0.5951  0.8200
   34CHL1   C11 3656   5.901   5.740   6.165 -0.6257 -0.1489  0.3508
   34CHL1  H11A 3657   5.994   5.790   6.199 -0.6159 -0.3548  0.6326
   34CHL1  H11B 3658   5.815   5.809   6.179  0.1898  1.0450 -0.4061
   34CHL1    C9 3659   5.880   5.614   6.254 -0.0051  0.0513 -0.1735
   34CHL1    H9 3660   5.787   5.564   6.219  1.0348 -2.0664 -0.0082
   34CHL1   C10 3661   5.859   5.648   6.399  0.1020  0.4307 -0.1431
   34CHL1   C19 3662   5.950   5.766   6.455 -1.0753  0.1736 -0.1143
   34CHL1  H19A 3663   6.057   5.740   6.440 -1.0499 -0.5743  1.2010
   34CHL1  H19B 3664   5.940   5.859   6.395  1.3913  0.1818 -0.6377
   34CHL1  H19C 3665   5.935   5.784   6.564  0.6973  1.6204 -0.0503
   34CHL1    C1 3666   5.708   5.692   6.421  0.7319 -0.5731  0.5052
   34CHL1   H1A 3667   5.690   5.781   6.357 -1.8447 -1.8730 -0.7594
   34CHL1   H1B 3668   5.641   5.619   6.370 -0.9352  0.6695  0.8257
   34CHL1    C2 3669   5.670   5.718   6.567 -0.5662 -0.2937 -0.5681
   34CHL1   H2A 3670   5.563   5.748   6.573 -0.3406  0.2660  1.7783
   34CHL1   H2B 3671   5.741   5.796   6.601  2.0756 -1.4900 -2.9986
   34CHL1   C20 3672   6.106   5.613   5.762 -0.1874 -0.6410  0.1474
   34CHL1   H20 3673   6.180   5.689   5.795  1.0219 -1.4610 -0.5874
   34CHL1   C21 3674   5.997   5.699   5.689  0.4058 -0.2571  0.1908
   34CHL1  H21A 3675   5.930   5.750   5.762  1.1843 -3.0927  3.1552
   34CHL1  H21B 3676   5.926   5.631   5.636  0.4523 -0.4173  0.3327
   34CHL1  H21C 3677   6.046   5.771   5.621  1.0011 -1.1404 -0.3428
   34CHL1   C22 3678   6.178   5.520   5.655 -0.3649  0.1945 -0.6699
   34CHL1  H22A 3679   6.255   5.453   5.699  0.4688  1.1620 -0.6002
   34CHL1  H22B 3680   6.107   5.452   5.603 -0.3334  0.0653 -0.5453
   34CHL1   C23 3681   6.248   5.599   5.544 -0.3852 -0.2259  0.3637
   34CHL1  H23A 3682   6.167   5.651   5.490 -1.7198 -0.5519  1.9677
   34CHL1  H23B 3683   6.311   5.676   5.595 -0.5182 -1.1306  1.9710
   34CHL1   C24 3684   6.338   5.515   5.444 -0.0691 -0.4835 -0.2514
   34CHL1  H24A 3685   6.393   5.442   5.508  5.0342  2.3412 -0.8733
   34CHL1  H24B 3686   6.281   5.456   5.369  1.4190 -1.9208 -0.3104
   34CHL1   C25 3687   6.447   5.598   5.378 -0.5702 -0.1388  0.0977
   34CHL1   H25 3688   6.504   5.644   5.462 -0.3284 -1.8417  0.9100
   34CHL1   C26 3689   6.542   5.502   5.298 -0.2792  0.0903 -1.1097
   34CHL1  H26A 3690   6.617   5.558   5.238  0.4656 -0.1877 -0.4586
   34CHL1  H26B 3691   6.593   5.437   5.372 -2.6095 -0.2232  0.3139
   34CHL1  H26C 3692   6.475   5.438   5.236 -1.1095  0.0874 -0.2309
   34CHL1   C27 3693   6.368   5.704   5.288 -0.4371  0.7261  0.2153
   34CHL1  H27A 3694   6.284   5.658   5.231 -1.5357  2.5807  0.2512
   34CHL1  H27B 3695   6.319   5.791   5.336 -0.6040  2.2158 -2.4944
   34CHL1  H27C 3696   6.442   5.748   5.218  0.8228 -1.1649  0.2895
   35CHL1    C3 3697   3.277   2.388   6.855  0.4497  0.1344 -0.7842
   35CHL1    H3 3698   3.288   2.496   6.831 -0.8226  0.0752 -1.7408
   35CHL1    O3 3699   3.228   2.380   6.989  0.5033 -0.4229 -0.1520
   35CHL1   H3' 3700   3.303   2.394   7.047  0.9870  1.7586 -1.1838
   35CHL1    C4 3701   3.185   2.326   6.749 -1.1133  0.4254 -0.0296
   35CHL1   H4A 3702   3.176   2.224   6.793 -1.1338  0.9062  1.1396
   35CHL1   H4B 3703   3.083   2.369   6.749 -0.3458  2.3415 -0.1382
   35CHL1    C5 3704   3.250   2.332   6.612 -0.0590  0.1738 -0.1801
   35CHL1    C6 3705   3.190   2.402   6.512 -0.6350 -0.6619  0.0002
   35CHL1    H6 3706   3.087   2.441   6.515  0.2012  1.9939 -1.7539
   35CHL1    C7 3707   3.248   2.419   6.374 -0.2426 -0.4695 -0.4490
   35CHL1   H7A 3708   3.177   2.415   6.288  0.5150  1.2331 -1.2129
   35CHL1   H7B 3709   3.288   2.523   6.372  1.0344 -0.9155  0.6621
   35CHL1    C8 3710   3.363   2.318   6.348  0.0624 -0.3841 -0.4711
   35CHL1    H8 3711   3.322   2.216   6.340  0.3829 -0.4519 -1.5193
   35CHL1   C14 3712   3.432   2.355   6.220 -0.3630  0.2704  0.0704
   35CHL1   H14 3713   3.468   2.458   6.240  0.2322  0.2738 -0.9662
   35CHL1   C15 3714   3.351   2.385   6.093  0.6742 -0.3646  0.3570
   35CHL1  H15A 3715   3.256   2.327   6.096 -0.6347  1.6791  1.5976
   35CHL1  H15B 3716   3.318   2.491   6.091  0.6079 -0.3994 -0.9241
   35CHL1   C16 3717   3.455   2.367   5.981 -1.4223  0.0732  0.0034
   35CHL1  H16A 3718   3.424   2.277   5.923 -0.5180 -1.6071  1.9921
   35CHL1  H16B 3719   3.472   2.465   5.933  0.7544  2.1578  4.5096
   35CHL1   C17 3720   3.592   2.320   6.048  0.3226  0.0055 -0.0983
   35CHL1   H17 3721   3.657   2.405   6.075 -0.0225 -0.2586  1.6545
   35CHL1   C13 3722   3.552   2.265   6.184  0.4725 -0.1728  0.3243
   35CHL1   C18 3723   3.496   2.121   6.156  0.1071 -0.1925 -0.2081
   35CHL1  H18A 3724   3.401   2.121   6.099 -0.4312  0.9288  0.6501
   35CHL1  H18B 3725   3.566   2.059   6.096  1.4739  2.3664 -1.4108
   35CHL1  H18C 3726   3.484   2.065   6.251 -0.1452  0.1931 -0.0107
   35CHL1   C12 3727   3.650   2.279   6.299  0.0642 -0.4360 -0.1037
   35CHL1  H12A 3728   3.739   2.212   6.293  0.8337  0.6555 -1.6739
   35CHL1  H12B 3729   3.687   2.384   6.308 -0.0217 -0.1883 -2.2420
   35CHL1   C11 3730   3.588   2.236   6.435  0.0739  0.4664 -0.1095
   35CHL1  H11A 3731   3.571   2.127   6.422  2.8702  0.1325 -1.5643
   35CHL1  H11B 3732   3.667   2.260   6.509 -1.3477  1.7693  1.0667
   35CHL1    C9 3733   3.463   2.321   6.469  0.1810  0.6677  0.3281
   35CHL1    H9 3734   3.496   2.426   6.485 -1.5495  1.7945 -2.6059
   35CHL1   C10 3735   3.394   2.283   6.606  0.3307  0.1026  0.7383
   35CHL1   C19 3736   3.382   2.131   6.619 -0.4521 -0.5066  0.0568
   35CHL1  H19A 3737   3.484   2.087   6.624 -0.3986 -0.2945  1.1625
   35CHL1  H19B 3738   3.323   2.092   6.705  0.5930  1.8121  1.9698
   35CHL1  H19C 3739   3.331   2.104   6.525 -1.7204  3.2150 -0.5163
   35CHL1    C1 3740   3.484   2.333   6.723 -0.0390 -0.0030 -0.1055
   35CHL1   H1A 3741   3.593   2.312   6.722  0.4125  2.1496 -0.1963
   35CHL1   H1B 3742   3.484   2.442   6.702  0.1174 -0.0988 -0.6147
   35CHL1    C2 3743   3.413   2.333   6.860  0.6803 -0.5929  0.1767
   35CHL1   H2A 3744   3.479   2.384   6.933 -0.5097  0.3459  0.6308
   35CHL1   H2B 3745   3.409   2.227   6.894  0.8936 -0.5782  0.2504
   35CHL1   C20 3746   3.672   2.247   5.946  0.6191 -0.9087  0.6610
   35CHL1   H20 3747   3.611   2.159   5.916  0.3015 -0.9276  1.3445
   35CHL1   C21 3748   3.799   2.188   6.003 -0.0226  0.3801 -0.3600
   35CHL1  H21A 3749   3.788   2.143   6.104  1.4562  0.7308 -0.0213
   35CHL1  H21B 3750   3.865   2.278   6.005  0.6998 -0.1295 -0.8459
   35CHL1  H21C 3751   3.850   2.119   5.933  3.7010  0.4297  2.0217
   35CHL1   C22 3752   3.701   2.327   5.814 -0.2912 -0.1375 -0.6334
   35CHL1  H22A 3753   3.609   2.375   5.775  0.6677  0.9333 -1.6878
   35CHL1  H22B 3754   3.767   2.412   5.842 -1.3477  0.6811 -0.5668
   35CHL1   C23 3755   3.772   2.259   5.699  0.7047  0.9127  0.0708
   35CHL1  H23A 3756   3.862   2.201   5.726  0.1554 -1.0069 -1.8800
   35CHL1  H23B 3757   3.701   2.174   5.684  1.0403  0.6676 -0.1460
   35CHL1   C24 3758   3.779   2.339   5.570  0.3930 -0.2669  0.0880
   35CHL1  H24A 3759   3.677   2.376   5.547  0.7943  2.3472  2.1061
   35CHL1  H24B 3760   3.847   2.423   5.590  0.7527 -0.6088  0.3103
   35CHL1   C25 3761   3.826   2.265   5.443 -0.3045 -0.1324 -0.2971
   35CHL1   H25 3762   3.936   2.246   5.446 -0.2051  0.2947 -0.9618
   35CHL1   C26 3763   3.754   2.126   5.435 -0.6700 -0.0781 -0.4256
   35CHL1  H26A 3764   3.644   2.133   5.449 -0.5298 -0.2187  0.8902
   35CHL1  H26B 3765   3.765   2.082   5.334 -0.1329 -1.0341  0.0448
   35CHL1  H26C 3766   3.795   2.050   5.504 -0.3336 -0.9187 -1.5183
   35CHL1   C27 3767   3.809   2.356   5.324  0.0312  0.3717  0.5533
   35CHL1  H27A 3768   3.874   2.446   5.336  1.5012 -0.8995  3.1924
   35CHL1  H27B 3769   3.840   2.322   5.223  1.3596  0.7982  0.7895
   35CHL1  H27C 3770   3.701   2.378   5.312  0.2253  0.0163 -2.3296
   36CHL1    C3 3771   4.952   3.492   7.231 -0.9378 -0.0342 -0.5289
   36CHL1    H3 3772   4.901   3.586   7.202 -2.8995 -0.6784  0.6586
   36CHL1    O3 3773   4.940   3.476   7.374 -0.7559 -0.0740 -0.1673
   36CHL1   H3' 3774   4.987   3.548   7.416  0.1175  0.4428 -1.9437
   36CHL1    C4 3775   4.892   3.368   7.153  0.0728  0.0925  0.3925
   36CHL1   H4A 3776   4.949   3.279   7.187 -0.1912 -0.1324  0.2494
   36CHL1   H4B 3777   4.786   3.358   7.185 -0.5602  2.5441 -0.6885
   36CHL1    C5 3778   4.911   3.381   7.004 -0.2063 -0.4888  0.3969
   36CHL1    C6 3779   4.809   3.391   6.915 -0.0653  0.5325 -0.7366
   36CHL1    H6 3780   4.707   3.384   6.955  0.7090  1.8358  1.6011
   36CHL1    C7 3781   4.821   3.417   6.772  0.4786 -0.2029 -0.1965
   36CHL1   H7A 3782   4.752   3.350   6.717 -1.1704  0.4703  0.9882
   36CHL1   H7B 3783   4.780   3.518   6.751  0.7179 -0.5541 -2.8026
   36CHL1    C8 3784   4.971   3.407   6.727  0.2296 -0.0118 -1.2545
   36CHL1    H8 3785   5.002   3.301   6.720  0.2287 -0.4167  2.7035
   36CHL1   C14 3786   4.972   3.475   6.588  0.2476  0.5184 -0.2995
   36CHL1   H14 3787   4.945   3.582   6.603  0.2382  0.4573  0.1301
   36CHL1   C15 3788   4.886   3.425   6.474  1.1254  0.0822 -0.0915
   36CHL1  H15A 3789   4.891   3.314   6.477  2.7521  0.1283 -0.3933
   36CHL1  H15B 3790   4.782   3.464   6.468 -0.1598 -3.0967 -0.4801
   36CHL1   C16 3791   4.961   3.468   6.346 -0.1279 -0.3500  0.5989
   36CHL1  H16A 3792   4.967   3.380   6.278 -2.9388 -1.1681  1.2494
   36CHL1  H16B 3793   4.899   3.539   6.287 -1.0958 -2.2820 -0.8165
   36CHL1   C17 3794   5.089   3.527   6.388  0.9625 -0.6230  0.0233
   36CHL1   H17 3795   5.062   3.634   6.399 -0.9042 -1.1811  1.2764
   36CHL1   C13 3796   5.117   3.465   6.529  0.1558 -0.8233 -0.7739
   36CHL1   C18 3797   5.169   3.321   6.510  0.2817  0.6119 -0.0576
   36CHL1  H18A 3798   5.262   3.322   6.449  0.3929  1.9843  0.1165
   36CHL1  H18B 3799   5.192   3.255   6.596  1.1198  0.6712 -0.2228
   36CHL1  H18C 3800   5.099   3.266   6.444  1.2019  0.4589 -0.9373
   36CHL1   C12 3801   5.214   3.544   6.624  0.1972 -0.0884 -0.3381
   36CHL1  H12A 3802   5.315   3.534   6.579  0.3176  2.8239 -0.9427
   36CHL1  H12B 3803   5.190   3.653   6.626 -1.0283 -0.3284  1.8366
   36CHL1   C11 3804   5.208   3.488   6.767 -0.6385  0.3529  0.3574
   36CHL1  H11A 3805   5.271   3.397   6.769 -0.8168  0.2362  1.5265
   36CHL1  H11B 3806   5.261   3.567   6.826 -0.4362  0.8128 -0.4287
   36CHL1    C9 3807   5.067   3.474   6.829  0.3382 -0.6124  0.3249
   36CHL1    H9 3808   5.018   3.574   6.839 -0.0822 -0.9851  2.4013
   36CHL1   C10 3809   5.063   3.411   6.968 -0.1822  0.2633  0.6491
   36CHL1   C19 3810   5.144   3.280   6.978  0.6407 -0.4430 -0.9149
   36CHL1  H19A 3811   5.251   3.291   6.952  0.7150 -0.7756 -0.7567
   36CHL1  H19B 3812   5.136   3.230   7.078  1.2486  0.5551 -0.3497
   36CHL1  H19C 3813   5.113   3.201   6.907  1.0881 -0.9871 -0.5162
   36CHL1    C1 3814   5.135   3.517   7.066 -0.2438  0.2024 -0.3050
   36CHL1   H1A 3815   5.244   3.528   7.045  0.0702  0.8040  1.4259
   36CHL1   H1B 3816   5.104   3.618   7.031 -0.0489  0.9611  1.6003
   36CHL1    C2 3817   5.102   3.492   7.215 -0.8715  0.0201  0.4035
   36CHL1   H2A 3818   5.148   3.572   7.277 -0.8206 -1.2743  2.1245
   36CHL1   H2B 3819   5.133   3.395   7.260 -4.0113 -1.3841 -0.2371
   36CHL1   C20 3820   5.197   3.531   6.281  0.5702 -0.4898  0.9893
   36CHL1   H20 3821   5.237   3.430   6.261  0.2867 -0.3494 -0.3960
   36CHL1   C21 3822   5.307   3.622   6.323  0.0124  0.3667  0.1923
   36CHL1  H21A 3823   5.265   3.722   6.348 -0.9594  0.4681 -1.6706
   36CHL1  H21B 3824   5.378   3.631   6.238 -0.8031 -0.5210 -0.6128
   36CHL1  H21C 3825   5.372   3.587   6.406  2.2269  0.2245 -1.5037
   36CHL1   C22 3826   5.145   3.579   6.134 -0.6014  0.9030  0.0080
   36CHL1  H22A 3827   5.035   3.593   6.135 -0.3572  3.3353  1.0294
   36CHL1  H22B 3828   5.196   3.676   6.119 -1.5260  1.5576  0.9248
   36CHL1   C23 3829   5.187   3.472   6.030  0.8333 -0.3988 -0.3443
   36CHL1  H23A 3830   5.297   3.459   6.019  0.8303 -1.6568  0.7765
   36CHL1  H23B 3831   5.136   3.374   6.039 -1.2099  0.6595  0.0642
   36CHL1   C24 3832   5.147   3.507   5.895  0.1681  0.3579  1.0181
   36CHL1  H24A 3833   5.038   3.522   5.911 -0.0423 -1.0804  1.0685
   36CHL1  H24B 3834   5.189   3.604   5.861 -1.3590 -0.0590 -2.5767
   36CHL1   C25 3835   5.143   3.402   5.772  0.3046 -0.2974 -0.6225
   36CHL1   H25 3836   5.103   3.303   5.802 -1.4995  0.4671 -0.3594
   36CHL1   C26 3837   5.064   3.465   5.654  0.1704 -0.5252 -0.4718
   36CHL1  H26A 3838   5.090   3.573   5.654  0.0095 -0.4846 -0.1879
   36CHL1  H26B 3839   5.102   3.416   5.562  1.5782 -2.9557  1.2796
   36CHL1  H26C 3840   4.956   3.449   5.669  0.1860  0.8585  1.4865
   36CHL1   C27 3841   5.291   3.386   5.718  0.2602 -0.4401 -0.6698
   36CHL1  H27A 3842   5.279   3.294   5.657  1.4189 -0.5368 -0.7710
   36CHL1  H27B 3843   5.331   3.478   5.670  0.0742 -0.8076 -1.5450
   36CHL1  H27C 3844   5.358   3.344   5.796 -0.4892 -0.4907 -0.0371
   37CHL1    C3 3845   6.759   1.097   3.776 -0.1041 -0.0988  0.8852
   37CHL1    H3 3846   6.673   1.167   3.775  2.3146  3.1002  1.0847
   37CHL1    O3 3847   6.798   1.067   3.644 -0.2217 -0.0728 -0.0195
   37CHL1   H3' 3848   6.881   1.019   3.647  1.1718  2.0036 -1.9754
   37CHL1    C4 3849   6.874   1.156   3.855  0.8884 -0.1665  0.2944
   37CHL1   H4A 3850   6.969   1.105   3.825  1.4474  0.2779  1.2610
   37CHL1   H4B 3851   6.895   1.259   3.818  4.3926 -0.4531  1.1338
   37CHL1    C5 3852   6.853   1.157   4.007  0.8790  0.7146  0.4607
   37CHL1    C6 3853   6.852   1.275   4.070  0.3380  0.6595  1.0501
   37CHL1    H6 3854   6.888   1.365   4.018  1.6732 -1.4963 -2.0406
   37CHL1    C7 3855   6.839   1.297   4.219 -0.3531  0.1579 -0.1378
   37CHL1   H7A 3856   6.916   1.371   4.250 -0.3981  0.7242 -1.3169
   37CHL1   H7B 3857   6.737   1.334   4.243 -0.2036  0.1861  0.4793
   37CHL1    C8 3858   6.860   1.163   4.292 -0.3312  0.4890  0.0906
   37CHL1    H8 3859   6.969   1.140   4.282 -0.8641 -1.3621 -2.6111
   37CHL1   C14 3860   6.817   1.165   4.438  0.2751 -0.5382 -0.4180
   37CHL1   H14 3861   6.709   1.193   4.433  0.8712  2.2122  0.1933
   37CHL1   C15 3862   6.869   1.279   4.528  0.3217  0.1715 -0.2091
   37CHL1  H15A 3863   6.978   1.283   4.506  0.4356 -0.5593  0.1946
   37CHL1  H15B 3864   6.826   1.380   4.511 -1.1848 -0.1201  1.5615
   37CHL1   C16 3865   6.822   1.236   4.666 -0.2938 -0.1843 -0.6539
   37CHL1  H16A 3866   6.898   1.268   4.740  0.2853 -1.1296 -0.8327
   37CHL1  H16B 3867   6.734   1.300   4.690  1.1485  1.0797  1.5429
   37CHL1   C17 3868   6.797   1.087   4.668  0.1086 -0.1689 -0.0473
   37CHL1   H17 3869   6.690   1.061   4.685  0.3940  0.2750  2.8735
   37CHL1   C13 3870   6.834   1.032   4.521  0.1231 -0.3265 -0.3995
   37CHL1   C18 3871   6.982   0.993   4.518 -0.1115  0.1789  0.5064
   37CHL1  H18A 3872   7.051   1.076   4.541  1.6850 -1.1809  0.2208
   37CHL1  H18B 3873   7.001   0.904   4.581 -3.1145 -1.4790 -0.7339
   37CHL1  H18C 3874   7.010   0.967   4.413 -3.8587 -1.1480 -0.3186
   37CHL1   C12 3875   6.736   0.931   4.462 -0.2878 -0.0137 -0.2035
   37CHL1  H12A 3876   6.757   0.842   4.525 -2.4264 -0.6452 -0.3151
   37CHL1  H12B 3877   6.630   0.963   4.465  0.2451  1.9635 -0.9779
   37CHL1   C11 3878   6.768   0.914   4.304 -0.2183 -0.1907  0.7209
   37CHL1  H11A 3879   6.868   0.866   4.299 -0.3389 -0.3374 -0.6615
   37CHL1  H11B 3880   6.691   0.853   4.254 -0.8344  1.3566 -0.3106
   37CHL1    C9 3881   6.775   1.045   4.225 -0.1950 -0.5750 -0.2786
   37CHL1    H9 3882   6.668   1.073   4.219  0.1834  0.6401 -2.4791
   37CHL1   C10 3883   6.806   1.028   4.069 -0.0321 -0.2282 -0.1995
   37CHL1   C19 3884   6.920   0.930   4.052 -0.1648  0.5240 -0.1242
   37CHL1  H19A 3885   6.999   0.954   4.126 -0.6186  0.6099  0.3387
   37CHL1  H19B 3886   6.886   0.828   4.077  1.8071 -0.1716 -0.0999
   37CHL1  H19C 3887   6.964   0.925   3.950  0.8206  1.1409  0.2564
   37CHL1    C1 3888   6.681   0.964   3.994 -0.9657 -0.6569  0.5470
   37CHL1   H1A 3889   6.673   0.863   4.038  0.4105  0.1387  2.8021
   37CHL1   H1B 3890   6.593   1.023   4.026  0.7676  1.5493  1.5787
   37CHL1    C2 3891   6.706   0.965   3.841  0.0367  0.2690  0.2691
   37CHL1   H2A 3892   6.608   0.941   3.794 -0.3626  1.4147  0.4727
   37CHL1   H2B 3893   6.780   0.883   3.834  0.1026  0.3961 -0.5584
   37CHL1   C20 3894   6.857   1.018   4.791  0.7446  0.3927 -0.0260
   37CHL1   H20 3895   6.966   1.037   4.792  0.5050  1.8638 -0.3191
   37CHL1   C21 3896   6.811   0.871   4.789  0.3716 -0.0082 -0.3441
   37CHL1  H21A 3897   6.864   0.806   4.716  0.9582 -0.2481  0.2836
   37CHL1  H21B 3898   6.701   0.855   4.791 -0.3830  4.1338  2.1804
   37CHL1  H21C 3899   6.825   0.832   4.892 -2.5884 -0.5657 -0.0693
   37CHL1   C22 3900   6.815   1.078   4.931  0.4181  1.1674  0.0292
   37CHL1  H22A 3901   6.822   1.189   4.923  3.7614  1.1051  0.6075
   37CHL1  H22B 3902   6.709   1.053   4.952  0.7183  0.9609  1.3895
   37CHL1   C23 3903   6.898   1.048   5.054  0.2177 -0.0156  0.5084
   37CHL1  H23A 3904   6.887   0.938   5.062  3.1675 -0.3552  0.9733
   37CHL1  H23B 3905   7.001   1.079   5.026  0.3485  0.1443  1.1463
   37CHL1   C24 3906   6.845   1.122   5.185 -0.6224 -0.5332 -0.3050
   37CHL1  H24A 3907   6.887   1.225   5.178 -0.2601 -0.5096  1.6747
   37CHL1  H24B 3908   6.734   1.125   5.185 -0.6284 -0.6811 -0.7301
   37CHL1   C25 3909   6.889   1.055   5.313  0.4116 -0.1171  0.3618
   37CHL1   H25 3910   6.846   0.954   5.297 -0.4873  0.0604  1.4541
   37CHL1   C26 3911   7.046   1.052   5.343 -0.1285 -0.2720  0.1549
   37CHL1  H26A 3912   7.070   1.008   5.442  3.2187  1.8858  0.4564
   37CHL1  H26B 3913   7.103   1.004   5.261  1.5634 -0.2819  1.2789
   37CHL1  H26C 3914   7.069   1.160   5.354  0.2028 -0.2537 -0.6960
   37CHL1   C27 3915   6.821   1.124   5.430 -0.4724  0.2364 -0.0326
   37CHL1  H27A 3916   6.827   1.057   5.518 -3.1392  2.0511  1.6494
   37CHL1  H27B 3917   6.860   1.226   5.447 -1.7308  0.5490  1.1230
   37CHL1  H27C 3918   6.712   1.143   5.416 -0.4181  0.9212  0.4678
   38CHL1    C3 3919   6.672   0.309   7.087  0.3173 -0.2211 -0.3698
   38CHL1    H3 3920   6.582   0.367   7.059  0.7024 -0.8232 -3.1689
   38CHL1    O3 3921   6.667   0.246   7.215  0.8573 -0.3628 -0.2740
   38CHL1   H3' 3922   6.747   0.192   7.217  1.1299  0.0259 -0.5641
   38CHL1    C4 3923   6.704   0.191   6.989  0.9714  0.2468 -0.2280
   38CHL1   H4A 3924   6.790   0.134   7.030 -0.3816 -3.1851 -1.7245
   38CHL1   H4B 3925   6.620   0.118   6.986  1.3118 -0.1301 -2.4236
   38CHL1    C5 3926   6.728   0.238   6.849  0.2071  0.9158 -0.2964
   38CHL1    C6 3927   6.658   0.195   6.745  0.3791  0.1343 -0.1400
   38CHL1    H6 3928   6.571   0.130   6.763  0.7223  0.1553  1.7529
   38CHL1    C7 3929   6.669   0.241   6.601 -0.4063 -0.2549  0.1242
   38CHL1   H7A 3930   6.651   0.151   6.538 -1.5430  0.1360 -0.1284
   38CHL1   H7B 3931   6.582   0.308   6.583  0.1652  0.1851 -1.0374
   38CHL1    C8 3932   6.812   0.300   6.577  0.1439  0.0548  1.0617
   38CHL1    H8 3933   6.885   0.216   6.589  0.1850  0.1964  1.8173
   38CHL1   C14 3934   6.810   0.363   6.439 -0.2793  0.6423  0.2822
   38CHL1   H14 3935   6.745   0.451   6.453  1.3901  1.5133  3.3317
   38CHL1   C15 3936   6.753   0.280   6.324  0.9164  0.0046  0.4362
   38CHL1  H15A 3937   6.793   0.176   6.332  1.7767  0.2406 -0.5299
   38CHL1  H15B 3938   6.643   0.289   6.327  0.9626  2.0986 -1.3740
   38CHL1   C16 3939   6.824   0.350   6.202 -0.0028  0.0451  0.1748
   38CHL1  H16A 3940   6.903   0.290   6.154 -0.7178  1.0722 -2.4945
   38CHL1  H16B 3941   6.749   0.397   6.134 -0.9120 -0.9226  0.4806
   38CHL1   C17 3942   6.904   0.469   6.260  0.1810  0.1145 -0.3825
   38CHL1   H17 3943   6.825   0.544   6.283 -0.1382 -0.1572 -0.5786
   38CHL1   C13 3944   6.945   0.421   6.400  0.7562  0.9271 -0.1615
   38CHL1   C18 3945   7.060   0.320   6.374 -0.8181  0.0736  0.2819
   38CHL1  H18A 3946   7.139   0.377   6.321  0.6798 -0.6374  1.6715
   38CHL1  H18B 3947   7.111   0.266   6.456 -0.7597 -0.1140  0.1232
   38CHL1  H18C 3948   7.030   0.241   6.302 -1.5650  0.2091  0.4397
   38CHL1   C12 3949   6.991   0.521   6.505 -0.1365 -0.4897  0.6219
   38CHL1  H12A 3950   7.091   0.555   6.469 -0.5927  1.5089  1.0917
   38CHL1  H12B 3951   6.909   0.596   6.508 -1.5925 -2.0618  2.5537
   38CHL1   C11 3952   6.992   0.457   6.642  0.3386  0.5493  0.2366
   38CHL1  H11A 3953   7.065   0.373   6.649  2.7710  2.6306  1.1631
   38CHL1  H11B 3954   7.028   0.533   6.714  0.3104 -0.3936  1.2762
   38CHL1    C9 3955   6.853   0.402   6.684  0.1960  0.1776  0.2087
   38CHL1    H9 3956   6.785   0.490   6.683 -1.8135 -1.3168 -1.2989
   38CHL1   C10 3957   6.840   0.343   6.832  0.4557 -0.1841  0.4448
   38CHL1   C19 3958   6.974   0.275   6.869  0.3955  0.6740  0.3079
   38CHL1  H19A 3959   6.971   0.212   6.960 -0.1017 -0.9430 -0.7844
   38CHL1  H19B 3960   7.014   0.203   6.794 -0.8523  0.1924  0.0804
   38CHL1  H19C 3961   7.057   0.349   6.873  0.6568  0.4247 -0.3500
   38CHL1    C1 3962   6.808   0.458   6.923 -0.4119  0.1980 -0.6510
   38CHL1   H1A 3963   6.893   0.529   6.911 -0.1365  0.6213  2.6971
   38CHL1   H1B 3964   6.716   0.515   6.902  0.5739  2.3997  0.6729
   38CHL1    C2 3965   6.792   0.415   7.069 -0.3519  0.2857 -0.2065
   38CHL1   H2A 3966   6.774   0.507   7.129 -1.4550 -0.2369  0.2939
   38CHL1   H2B 3967   6.887   0.369   7.105 -0.3278  1.0090  0.7216
   38CHL1   C20 3968   7.007   0.544   6.163  0.0266 -0.8039 -0.5371
   38CHL1   H20 3969   7.096   0.479   6.148 -0.6979 -2.2161  0.9002
   38CHL1   C21 3970   7.045   0.688   6.210  0.4252  0.9179  0.1775
   38CHL1  H21A 3971   7.088   0.689   6.312  4.0745 -0.4457 -1.1662
   38CHL1  H21B 3972   6.953   0.750   6.219 -1.2867 -1.4559  0.0297
   38CHL1  H21C 3973   7.127   0.725   6.145  0.6336 -0.8416 -0.6009
   38CHL1   C22 3974   6.930   0.565   6.031 -0.0443  0.7014  0.0126
   38CHL1  H22A 3975   6.909   0.466   5.984 -0.4085  0.6825  0.2185
   38CHL1  H22B 3976   6.838   0.622   6.054  1.2031  2.5495  0.6058
   38CHL1   C23 3977   6.998   0.646   5.920  0.4074  0.1767 -0.4511
   38CHL1  H23A 3978   6.999   0.753   5.952  1.5366  0.3893 -1.1172
   38CHL1  H23B 3979   7.107   0.623   5.925  0.8800  2.4305  1.4490
   38CHL1   C24 3980   6.954   0.623   5.773 -0.0252 -0.2395  0.5436
   38CHL1  H24A 3981   6.988   0.521   5.742  1.3287  0.0270  1.0677
   38CHL1  H24B 3982   6.844   0.634   5.779  0.2667  3.3933  1.6184
   38CHL1   C25 3983   7.009   0.732   5.674 -0.1926 -0.1268  0.1031
   38CHL1   H25 3984   6.974   0.831   5.710 -1.4173 -0.0071 -1.3275
   38CHL1   C26 3985   7.159   0.731   5.659 -0.9140  0.3718  0.7829
   38CHL1  H26A 3986   7.190   0.809   5.586 -2.5245 -0.7836 -1.2481
   38CHL1  H26B 3987   7.209   0.754   5.755  1.6313 -1.5767  0.0468
   38CHL1  H26C 3988   7.190   0.631   5.622  0.8520  1.7872 -1.8886
   38CHL1   C27 3989   6.948   0.708   5.533 -0.0982 -0.2247 -0.4792
   38CHL1  H27A 3990   6.982   0.612   5.488  0.3380 -0.2595 -0.0771
   38CHL1  H27B 3991   6.837   0.712   5.528 -0.4476 -1.4308  3.0392
   38CHL1  H27C 3992   6.984   0.790   5.468 -0.1649  0.7927  0.7471
   39CHL1    C3 3993   5.452   0.293   7.576  0.0771  0.2634 -0.1860
   39CHL1    H3 3994   5.368   0.221   7.566  0.2104  0.3957 -2.9061
   39CHL1    O3 3995   5.495   0.294   7.711  0.0322  0.1706 -0.6560
   39CHL1   H3' 3996   5.525   0.384   7.728 -1.3658  0.2123  2.2908
   39CHL1    C4 3997   5.570   0.257   7.479  0.5301 -0.0778  0.0764
   39CHL1   H4A 3998   5.657   0.322   7.504 -0.5115  2.3373 -2.0818
   39CHL1   H4B 3999   5.605   0.156   7.510 -1.5559 -0.9040 -0.1141
   39CHL1    C5 4000   5.524   0.275   7.335 -0.3543  0.7989 -0.2955
   39CHL1    C6 4001   5.535   0.165   7.251 -0.8132  0.3120  0.8400
   39CHL1    H6 4002   5.586   0.071   7.278 -0.6618 -0.3122 -1.4207
   39CHL1    C7 4003   5.495   0.174   7.103 -0.1121 -0.2778 -0.4235
   39CHL1   H7A 4004   5.575   0.132   7.039  0.4119 -2.6517  1.5979
   39CHL1   H7B 4005   5.408   0.113   7.069  0.9487 -1.1746 -1.5881
   39CHL1    C8 4006   5.470   0.324   7.058  0.6249 -0.4915  0.2462
   39CHL1    H8 4007   5.572   0.366   7.062  1.1408 -1.6513 -0.3583
   39CHL1   C14 4008   5.415   0.337   6.912  0.8120  0.2554  0.1560
   39CHL1   H14 4009   5.318   0.283   6.911 -0.0422  1.5532  2.8927
   39CHL1   C15 4010   5.502   0.278   6.795  0.2454 -0.5236  0.1667
   39CHL1  H15A 4011   5.607   0.310   6.806 -0.5010  1.7538  1.3421
   39CHL1  H15B 4012   5.489   0.168   6.802  3.7106 -0.9407  4.8366
   39CHL1   C16 4013   5.439   0.336   6.667 -0.3844 -0.2696  0.2763
   39CHL1  H16A 4014   5.520   0.375   6.602  0.9660  0.4397  2.2557
   39CHL1  H16B 4015   5.386   0.251   6.618  1.1564 -1.1276  0.0460
   39CHL1   C17 4016   5.349   0.460   6.713 -0.1281  0.5051 -0.1100
   39CHL1   H17 4017   5.245   0.425   6.724  0.3399 -0.7872  0.3446
   39CHL1   C13 4018   5.382   0.485   6.866  0.2788  0.7234 -1.1280
   39CHL1   C18 4019   5.512   0.572   6.875  0.2510  0.0091 -0.2746
   39CHL1  H18A 4020   5.576   0.562   6.784 -0.8841 -0.2646 -1.0603
   39CHL1  H18B 4021   5.507   0.683   6.880 -0.6087  0.0031 -0.8472
   39CHL1  H18C 4022   5.564   0.564   6.973  2.0745  3.6184 -0.7898
   39CHL1   C12 4023   5.270   0.534   6.963 -0.0109 -0.6012 -0.5186
   39CHL1  H12A 4024   5.220   0.629   6.934 -0.2217 -0.3155  0.7487
   39CHL1  H12B 4025   5.195   0.453   6.956 -0.6126 -0.2619  1.5403
   39CHL1   C11 4026   5.323   0.538   7.106  0.2066 -0.1913 -0.0688
   39CHL1  H11A 4027   5.398   0.620   7.109 -0.2162  0.1840  0.7969
   39CHL1  H11B 4028   5.233   0.567   7.165 -0.2845  1.0404 -1.3521
   39CHL1    C9 4029   5.380   0.400   7.156 -0.9658  0.2617 -0.3074
   39CHL1    H9 4030   5.296   0.328   7.169 -0.1767 -0.4741  0.9551
   39CHL1   C10 4031   5.449   0.401   7.296 -0.0149  0.4060  0.8686
   39CHL1   C19 4032   5.555   0.515   7.296  0.6594  0.1487 -0.6626
   39CHL1  H19A 4033   5.627   0.512   7.211  2.0378  0.1764  0.4735
   39CHL1  H19B 4034   5.499   0.611   7.291  0.5366  0.0605 -0.9940
   39CHL1  H19C 4035   5.617   0.505   7.387  1.7351  0.7820 -1.2999
   39CHL1    C1 4036   5.346   0.440   7.402 -0.2458  0.4803 -0.4748
   39CHL1   H1A 4037   5.307   0.541   7.378 -0.2044  1.5562  3.3365
   39CHL1   H1B 4038   5.259   0.370   7.400  0.5635 -0.5258 -1.0856
   39CHL1    C2 4039   5.400   0.431   7.545 -0.3903 -0.0910  0.3237
   39CHL1   H2A 4040   5.309   0.444   7.607 -1.2182 -0.5261 -0.7797
   39CHL1   H2B 4041   5.472   0.516   7.550 -1.0734  0.4643  0.8823
   39CHL1   C20 4042   5.351   0.582   6.621  0.3012  0.0248  0.6288
   39CHL1   H20 4043   5.446   0.641   6.625  0.2278  0.1764  0.1708
   39CHL1   C21 4044   5.239   0.682   6.648  0.5394 -0.1063  0.0112
   39CHL1  H21A 4045   5.144   0.624   6.653  0.9191 -0.6415  2.5981
   39CHL1  H21B 4046   5.214   0.742   6.558 -1.9953  0.2693  0.8688
   39CHL1  H21C 4047   5.250   0.751   6.735  1.2971  0.4442 -0.5148
   39CHL1   C22 4048   5.345   0.541   6.475  0.0728  0.8719  0.6643
   39CHL1  H22A 4049   5.380   0.436   6.465  2.6579  1.6754  0.5255
   39CHL1  H22B 4050   5.239   0.558   6.448  0.0646  0.6020  0.5287
   39CHL1   C23 4051   5.428   0.634   6.383 -0.3871 -0.1349 -0.0044
   39CHL1  H23A 4052   5.417   0.744   6.392  1.4680  0.0008  1.0576
   39CHL1  H23B 4053   5.534   0.615   6.410 -0.3743 -0.2801 -0.1553
   39CHL1   C24 4054   5.403   0.603   6.234 -0.4407  0.0520  0.5083
   39CHL1  H24A 4055   5.441   0.500   6.216  1.5990  1.0002 -1.0078
   39CHL1  H24B 4056   5.294   0.604   6.212 -0.5566 -3.5378  0.2604
   39CHL1   C25 4057   5.473   0.695   6.132 -0.1749  0.6533 -0.7298
   39CHL1   H25 4058   5.413   0.787   6.117 -0.8802  0.1953 -0.7789
   39CHL1   C26 4059   5.616   0.737   6.162 -0.4775 -0.2200  0.0298
   39CHL1  H26A 4060   5.615   0.798   6.255 -2.0275  0.8613 -0.6455
   39CHL1  H26B 4061   5.688   0.654   6.176  0.5233  0.5726 -0.3251
   39CHL1  H26C 4062   5.660   0.799   6.081  2.8903 -0.1906  1.7288
   39CHL1   C27 4063   5.471   0.616   6.003  0.4949  0.1098 -0.0864
   39CHL1  H27A 4064   5.522   0.518   6.017 -0.9151 -0.6563 -0.1298
   39CHL1  H27B 4065   5.367   0.599   5.969  1.2865  0.6153 -3.0160
   39CHL1  H27C 4066   5.529   0.679   5.932  0.1101  1.7116  0.9793
   40CHL1    C3 4067   1.718   1.135   7.023  0.0711 -0.4518  0.5514
   40CHL1    H3 4068   1.663   1.038   7.016 -2.4564  0.8896  0.6644
   40CHL1    O3 4069   1.738   1.188   7.154  0.1785  0.2325  0.3893
   40CHL1   H3' 4070   1.659   1.177   7.207 -0.2950  1.9990  0.1364
   40CHL1    C4 4071   1.858   1.138   6.950  0.0843  0.0619  0.3952
   40CHL1   H4A 4072   1.895   1.243   6.947 -0.5977  0.3495  1.6295
   40CHL1   H4B 4073   1.937   1.081   7.004  1.6930  1.4401 -0.3702
   40CHL1    C5 4074   1.840   1.092   6.807  0.1690 -0.1771  0.0585
   40CHL1    C6 4075   1.896   0.983   6.758  0.0391 -0.2952 -0.5279
   40CHL1    H6 4076   1.964   0.932   6.829  0.4791  0.7257 -0.1910
   40CHL1    C7 4077   1.883   0.939   6.621 -0.4601 -0.0881  0.1320
   40CHL1   H7A 4078   1.972   0.895   6.571 -1.1069 -2.7344  1.1351
   40CHL1   H7B 4079   1.809   0.857   6.618 -2.0807  1.1461  2.6937
   40CHL1    C8 4080   1.836   1.052   6.523  0.3798  0.5608  0.6096
   40CHL1    H8 4081   1.920   1.121   6.498  0.6471 -0.4216 -1.3310
   40CHL1   C14 4082   1.798   0.980   6.389  0.4758 -0.3473 -0.0688
   40CHL1   H14 4083   1.712   0.917   6.420 -0.5449  1.1100  0.1969
   40CHL1   C15 4084   1.898   0.884   6.320  0.7126 -0.3754 -0.7010
   40CHL1  H15A 4085   1.991   0.944   6.332  0.4737  0.1075 -1.2120
   40CHL1  H15B 4086   1.899   0.789   6.377  1.9483 -0.1556 -0.3190
   40CHL1   C16 4087   1.849   0.876   6.179 -0.3241  0.0492  0.6756
   40CHL1  H16A 4088   1.935   0.912   6.118  0.1017 -0.0498  1.2111
   40CHL1  H16B 4089   1.809   0.774   6.161  3.2167 -1.4950  0.7324
   40CHL1   C17 4090   1.727   0.981   6.165 -0.1320  0.1665 -0.4561
   40CHL1   H17 4091   1.634   0.924   6.186 -0.0401 -0.3974 -1.4948
   40CHL1   C13 4092   1.741   1.076   6.289  0.5556  0.0691 -0.0523
   40CHL1   C18 4093   1.847   1.182   6.259  0.0259 -0.2947  0.2004
   40CHL1  H18A 4094   1.803   1.257   6.189  0.5213  0.7368  0.9751
   40CHL1  H18B 4095   1.879   1.241   6.347  0.9838  0.0002 -0.3308
   40CHL1  H18C 4096   1.939   1.134   6.220 -1.8532 -4.4602  0.4229
   40CHL1   C12 4097   1.614   1.136   6.345  0.4951 -0.2082 -1.0727
   40CHL1  H12A 4098   1.575   1.216   6.280 -0.8749  0.5016  0.5418
   40CHL1  H12B 4099   1.542   1.053   6.360  0.1775  0.5354  2.4704
   40CHL1   C11 4100   1.640   1.210   6.475  0.5730  0.0150 -0.4528
   40CHL1  H11A 4101   1.709   1.294   6.452 -0.2574  0.1858 -2.5696
   40CHL1  H11B 4102   1.543   1.252   6.511  0.7214 -0.5975  0.7164
   40CHL1    C9 4103   1.710   1.117   6.578 -0.8509 -0.4247 -0.3031
   40CHL1    H9 4104   1.642   1.032   6.600  0.3923 -1.3138  0.2419
   40CHL1   C10 4105   1.739   1.174   6.721  0.8563  0.1168  0.1742
   40CHL1   C19 4106   1.808   1.309   6.688 -0.1667 -0.4938 -0.1383
   40CHL1  H19A 4107   1.883   1.341   6.764  1.7628 -0.9705 -1.7646
   40CHL1  H19B 4108   1.868   1.298   6.596  1.3400  0.9000  0.6355
   40CHL1  H19C 4109   1.728   1.385   6.674 -0.6287 -0.9836 -0.2115
   40CHL1    C1 4110   1.607   1.193   6.801  0.2785  0.6046 -0.0256
   40CHL1   H1A 4111   1.554   1.275   6.749  0.6938 -0.2245 -1.8322
   40CHL1   H1B 4112   1.536   1.107   6.796  2.1640 -0.9717 -0.8373
   40CHL1    C2 4113   1.622   1.236   6.950 -0.0782 -0.8158 -0.0687
   40CHL1   H2A 4114   1.528   1.232   7.010 -0.3811  0.9513 -0.3675
   40CHL1   H2B 4115   1.667   1.338   6.957 -1.0591 -0.3754  0.0497
   40CHL1   C20 4116   1.722   1.046   6.023  1.0089 -0.0171  0.5701
   40CHL1   H20 4117   1.817   1.101   6.003  0.3646  0.6037 -0.9233
   40CHL1   C21 4118   1.606   1.153   6.021 -0.1665  0.0726 -0.0626
   40CHL1  H21A 4119   1.506   1.109   6.042  0.0790  0.4977  2.1461
   40CHL1  H21B 4120   1.592   1.195   5.919 -0.4853 -1.6856 -0.7920
   40CHL1  H21C 4121   1.634   1.240   6.083 -0.3603  0.3729 -0.3901
   40CHL1   C22 4122   1.705   0.931   5.916 -0.5100  0.0940 -0.3204
   40CHL1  H22A 4123   1.790   0.861   5.922 -0.4325  0.1761 -0.4811
   40CHL1  H22B 4124   1.624   0.861   5.947  0.1554 -1.0660 -1.1694
   40CHL1   C23 4125   1.694   0.976   5.773 -0.2333 -0.3525  0.0664
   40CHL1  H23A 4126   1.688   0.889   5.704 -1.6060  1.3964 -2.1900
   40CHL1  H23B 4127   1.600   1.034   5.767 -0.6347 -0.9533  0.4763
   40CHL1   C24 4128   1.809   1.068   5.723  0.0813  0.4304  0.2608
   40CHL1  H24A 4129   1.813   1.161   5.785  0.4208  0.5937 -0.0028
   40CHL1  H24B 4130   1.904   1.012   5.728 -0.2767 -0.3576 -1.3365
   40CHL1   C25 4131   1.817   1.108   5.575  0.9222 -0.2185  0.4863
   40CHL1   H25 4132   1.834   1.017   5.515  0.8138 -0.7195  1.1988
   40CHL1   C26 4133   1.675   1.163   5.526 -0.6209 -0.0775 -0.1169
   40CHL1  H26A 4134   1.601   1.081   5.542 -0.1005 -0.4389  0.4771
   40CHL1  H26B 4135   1.646   1.241   5.599  1.6130  2.5591 -1.8589
   40CHL1  H26C 4136   1.668   1.202   5.422  0.9641 -1.1080 -0.6467
   40CHL1   C27 4137   1.929   1.207   5.543 -0.8333 -0.2070 -0.0201
   40CHL1  H27A 4138   2.031   1.167   5.561 -1.2829 -0.2453  2.8342
   40CHL1  H27B 4139   1.914   1.239   5.438 -0.4017 -1.1820 -0.3891
   40CHL1  H27C 4140   1.932   1.298   5.606  1.0491 -0.6426  0.5850
   41CHL1    C3 4141   5.527   3.867   7.243  0.6633  0.4614  0.2695
   41CHL1    H3 4142   5.617   3.804   7.256 -0.7753 -1.1587  3.7695
   41CHL1    O3 4143   5.452   3.865   7.368 -0.1393  0.6646 -0.9058
   41CHL1   H3' 4144   5.365   3.904   7.354 -1.0488  0.1513  2.5409
   41CHL1    C4 4145   5.571   3.999   7.184 -0.4023  0.4463 -0.0221
   41CHL1   H4A 4146   5.483   4.066   7.179 -0.8271  0.0229  1.2057
   41CHL1   H4B 4147   5.638   4.043   7.261 -1.4727 -0.9845  1.8221
   41CHL1    C5 4148   5.638   3.976   7.047  0.1963 -0.9686  0.3429
   41CHL1    C6 4149   5.763   4.007   7.019 -0.5776 -0.2394  0.1997
   41CHL1    H6 4150   5.813   4.068   7.096  1.8295 -0.8498 -0.7731
   41CHL1    C7 4151   5.837   3.992   6.880 -0.0475 -0.2890 -0.1972
   41CHL1   H7A 4152   5.895   4.080   6.847 -0.5575 -0.8937 -2.9355
   41CHL1   H7B 4153   5.890   3.894   6.871 -1.2125 -0.8067 -1.7952
   41CHL1    C8 4154   5.727   3.975   6.769  0.1699  0.1810  0.7159
   41CHL1    H8 4155   5.679   4.074   6.750  1.3025  0.5036 -0.6494
   41CHL1   C14 4156   5.792   3.922   6.634 -0.6197 -0.2010 -0.5130
   41CHL1   H14 4157   5.830   3.821   6.664 -0.9151  0.3843  2.0894
   41CHL1   C15 4158   5.904   4.004   6.577  0.0272 -0.1523 -0.3836
   41CHL1  H15A 4159   5.883   4.112   6.560 -1.4613  0.0585  2.2786
   41CHL1  H15B 4160   5.996   3.989   6.638  0.1608 -1.9484 -0.9664
   41CHL1   C16 4161   5.919   3.958   6.424 -0.5372 -0.0283 -0.5414
   41CHL1  H16A 4162   5.921   4.057   6.375 -0.2012  1.2849  1.9859
   41CHL1  H16B 4163   6.011   3.904   6.392 -0.9142 -2.0548  1.5462
   41CHL1   C17 4164   5.794   3.872   6.401 -0.0294 -0.0559 -0.2029
   41CHL1   H17 4165   5.823   3.768   6.425 -2.7235 -1.2862 -1.7258
   41CHL1   C13 4166   5.691   3.905   6.515 -0.3734  0.0926  0.2556
   41CHL1   C18 4167   5.629   4.045   6.485 -0.0605 -0.1597 -0.1288
   41CHL1  H18A 4168   5.550   4.026   6.410 -0.2502 -2.2697  0.5607
   41CHL1  H18B 4169   5.579   4.072   6.581  1.4043  0.1935  0.5725
   41CHL1  H18C 4170   5.704   4.127   6.473 -0.3447  0.2038  0.4807
   41CHL1   C12 4171   5.587   3.792   6.558  0.0888 -0.2174 -0.8575
   41CHL1  H12A 4172   5.509   3.785   6.478 -0.1018 -0.8035 -0.6312
   41CHL1  H12B 4173   5.647   3.699   6.570  1.1766  0.4301 -1.2052
   41CHL1   C11 4174   5.528   3.832   6.696 -0.5771  0.2378  0.1052
   41CHL1  H11A 4175   5.465   3.920   6.668 -1.6585  0.1610  2.0879
   41CHL1  H11B 4176   5.462   3.749   6.728  0.9924 -0.8993  0.4680
   41CHL1    C9 4177   5.627   3.865   6.809 -0.0711 -0.0114  0.4404
   41CHL1    H9 4178   5.684   3.773   6.834  0.2349  1.0512  4.2106
   41CHL1   C10 4179   5.552   3.915   6.938  0.4845  0.7392 -0.2538
   41CHL1   C19 4180   5.433   4.001   6.902  0.9823 -0.1904 -0.8229
   41CHL1  H19A 4181   5.449   4.089   6.836 -0.3707 -0.0552 -0.9980
   41CHL1  H19B 4182   5.360   3.935   6.851 -0.7357  0.7168  0.3719
   41CHL1  H19C 4183   5.376   4.049   6.984  3.0567  2.9189 -1.0423
   41CHL1    C1 4184   5.479   3.788   6.993  0.3071  0.7610 -0.1460
   41CHL1   H1A 4185   5.399   3.751   6.926  0.7753  0.4566 -0.5436
   41CHL1   H1B 4186   5.553   3.705   6.989 -1.2317 -0.6976  0.5340
   41CHL1    C2 4187   5.426   3.803   7.139 -0.2841 -0.1070  0.1338
   41CHL1   H2A 4188   5.400   3.697   7.160  1.2741 -0.5086  0.1738
   41CHL1   H2B 4189   5.336   3.868   7.138 -0.3147 -0.1504 -0.8116
   41CHL1   C20 4190   5.747   3.880   6.257 -0.2370  0.5627 -0.2572
   41CHL1   H20 4191   5.689   3.972   6.238  0.2510  0.8123 -0.5559
   41CHL1   C21 4192   5.656   3.762   6.232  0.5826  0.0530 -0.1794
   41CHL1  H21A 4193   5.562   3.771   6.292  1.5209  1.2356  1.1883
   41CHL1  H21B 4194   5.705   3.668   6.266 -0.0431 -0.7837 -1.4813
   41CHL1  H21C 4195   5.621   3.760   6.127 -0.1669  1.8063  0.0078
   41CHL1   C22 4196   5.867   3.882   6.163 -0.1707 -0.5375  0.1863
   41CHL1  H22A 4197   5.919   3.979   6.177 -1.8045  0.2387  1.0532
   41CHL1  H22B 4198   5.942   3.802   6.184 -0.4353 -0.8331  0.0108
   41CHL1   C23 4199   5.830   3.880   6.012 -0.2834 -0.0385 -0.2851
   41CHL1  H23A 4200   5.788   3.782   5.979  0.0187  0.1953 -1.4063
   41CHL1  H23B 4201   5.749   3.954   5.998 -0.5181  0.1056  1.6022
   41CHL1   C24 4202   5.956   3.923   5.927  0.1799 -1.3936  0.0248
   41CHL1  H24A 4203   5.977   4.030   5.950 -0.8668 -1.6470  2.5677
   41CHL1  H24B 4204   6.047   3.868   5.959  3.2329  2.8466 -0.4299
   41CHL1   C25 4205   5.933   3.907   5.776 -0.5893  0.4193 -0.1677
   41CHL1   H25 4206   5.831   3.948   5.764 -0.6327  0.4269  0.2208
   41CHL1   C26 4207   6.026   4.001   5.691  0.1175  0.3467 -0.4297
   41CHL1  H26A 4208   6.128   3.959   5.695  0.7247  1.7869 -0.0590
   41CHL1  H26B 4209   5.988   3.996   5.587 -0.7420 -0.1254 -0.1032
   41CHL1  H26C 4210   6.018   4.100   5.741  0.3553  0.0293  0.2506
   41CHL1   C27 4211   5.926   3.751   5.734  0.3739  0.1710  0.1248
   41CHL1  H27A 4212   6.013   3.691   5.768  1.5515  1.4020 -0.6298
   41CHL1  H27B 4213   5.831   3.710   5.774 -0.1059  0.3788 -0.7815
   41CHL1  H27C 4214   5.922   3.742   5.624  2.5971 -3.4197  0.1965
   42CHL1    C3 4215   3.707   4.336   7.069 -0.5892  0.1516  0.0208
   42CHL1    H3 4216   3.603   4.305   7.047 -0.3343 -0.8647  0.1957
   42CHL1    O3 4217   3.718   4.350   7.213  0.6271 -0.8561  0.1870
   42CHL1   H3' 4218   3.812   4.337   7.231  0.5171 -1.6698  0.2475
   42CHL1    C4 4219   3.817   4.237   7.023  0.2119  0.1167  0.2688
   42CHL1   H4A 4220   3.917   4.270   7.058  1.2374 -2.6079  0.1885
   42CHL1   H4B 4221   3.804   4.141   7.078  0.8911  0.5079  1.1270
   42CHL1    C5 4222   3.804   4.228   6.872 -0.8488  0.3139 -0.0566
   42CHL1    C6 4223   3.762   4.112   6.807 -0.4359  0.3126 -0.6922
   42CHL1    H6 4224   3.731   4.034   6.878  0.5853  0.2636 -0.2778
   42CHL1    C7 4225   3.759   4.090   6.657  0.8767  0.4075  0.4269
   42CHL1   H7A 4226   3.798   3.988   6.636 -2.8086 -1.2358  0.6305
   42CHL1   H7B 4227   3.656   4.083   6.616  0.4185  1.0986  1.4243
   42CHL1    C8 4228   3.834   4.200   6.584  1.0125 -0.4803  0.1639
   42CHL1    H8 4229   3.942   4.185   6.606  0.7593 -0.4218  1.5700
   42CHL1   C14 4230   3.801   4.192   6.434 -1.0786 -0.0655  0.5252
   42CHL1   H14 4231   3.691   4.210   6.429 -1.0398  0.0328 -0.0271
   42CHL1   C15 4232   3.823   4.058   6.367  0.2216 -0.1812 -0.2177
   42CHL1  H15A 4233   3.918   4.021   6.409  0.7379 -0.3262 -1.4534
   42CHL1  H15B 4234   3.734   3.995   6.388 -0.5163  0.1206 -2.1884
   42CHL1   C16 4235   3.830   4.093   6.215 -0.6379  0.4077  0.1327
   42CHL1  H16A 4236   3.929   4.054   6.184 -2.2910 -2.9857 -1.4058
   42CHL1  H16B 4237   3.751   4.033   6.165  1.1335  0.0191 -2.3357
   42CHL1   C17 4238   3.822   4.247   6.205  0.3648  0.2169 -0.7065
   42CHL1   H17 4239   3.712   4.259   6.193  0.6703  1.8960 -2.2301
   42CHL1   C13 4240   3.870   4.293   6.353  0.1022  0.4453 -0.2856
   42CHL1   C18 4241   4.024   4.282   6.351 -0.7929  0.1015  0.0178
   42CHL1  H18A 4242   4.063   4.179   6.338  0.4964  0.5397  0.2878
   42CHL1  H18B 4243   4.071   4.350   6.277 -0.9926  0.0837 -0.1265
   42CHL1  H18C 4244   4.064   4.328   6.444  0.5049  0.8593 -0.8953
   42CHL1   C12 4245   3.801   4.423   6.392 -0.3187 -0.3560  0.1516
   42CHL1  H12A 4246   3.847   4.513   6.347  1.2189 -0.1300  2.0456
   42CHL1  H12B 4247   3.693   4.416   6.369 -0.3245 -2.5728  0.5879
   42CHL1   C11 4248   3.828   4.454   6.541 -0.2649 -0.8124 -0.1997
   42CHL1  H11A 4249   3.935   4.475   6.561 -0.6823  1.2641  0.0323
   42CHL1  H11B 4250   3.770   4.538   6.584 -0.1370 -0.8236 -0.0031
   42CHL1    C9 4251   3.791   4.340   6.638 -0.4848 -0.1912 -0.3159
   42CHL1    H9 4252   3.681   4.321   6.643 -0.1756 -1.8321  1.5568
   42CHL1   C10 4253   3.835   4.355   6.791 -0.4861  0.3056  0.2139
   42CHL1   C19 4254   3.991   4.388   6.796  0.1006 -0.9031  0.0461
   42CHL1  H19A 4255   4.031   4.408   6.898 -0.7531 -0.5626  0.3227
   42CHL1  H19B 4256   4.060   4.310   6.757  1.6244  1.1874 -1.7183
   42CHL1  H19C 4257   4.006   4.483   6.741 -2.0286  0.1509  1.1753
   42CHL1    C1 4258   3.751   4.471   6.854  0.5530 -0.2071  0.2482
   42CHL1   H1A 4259   3.791   4.569   6.819 -0.6682 -0.3111 -1.5606
   42CHL1   H1B 4260   3.647   4.462   6.817  0.7388 -2.8689  0.2420
   42CHL1    C2 4261   3.742   4.474   7.004 -0.0710 -0.2912  0.5870
   42CHL1   H2A 4262   3.673   4.544   7.054  0.9960  1.2468 -0.0214
   42CHL1   H2B 4263   3.842   4.497   7.046 -0.0598 -1.4796  1.2468
   42CHL1   C20 4264   3.879   4.313   6.075 -0.2739 -0.1369  0.1777
   42CHL1   H20 4265   3.983   4.344   6.100 -0.0310  0.7798 -1.7843
   42CHL1   C21 4266   3.799   4.433   6.033  0.4410  0.3175  0.2235
   42CHL1  H21A 4267   3.781   4.503   6.118 -0.8708 -1.4106  1.4256
   42CHL1  H21B 4268   3.697   4.399   6.004  0.2911  2.2326 -1.7704
   42CHL1  H21C 4269   3.852   4.473   5.944  1.0985 -1.0515 -0.0239
   42CHL1   C22 4270   3.895   4.218   5.957  0.9134 -0.1617  0.1810
   42CHL1  H22A 4271   3.954   4.133   5.998 -1.3377 -2.1186 -0.3582
   42CHL1  H22B 4272   3.798   4.172   5.926  0.9120  0.8083 -1.3822
   42CHL1   C23 4273   3.969   4.282   5.834 -0.0606  0.0739 -0.0918
   42CHL1  H23A 4274   3.903   4.356   5.785  1.3192  1.9413  0.7348
   42CHL1  H23B 4275   4.071   4.311   5.870  0.4331 -0.3423 -1.1221
   42CHL1   C24 4276   3.984   4.166   5.738  0.1217  0.8682 -0.4722
   42CHL1  H24A 4277   4.083   4.123   5.763 -0.2787  0.7891  1.1206
   42CHL1  H24B 4278   3.906   4.087   5.742  0.7734  0.2537  0.5482
   42CHL1   C25 4279   3.998   4.209   5.591  0.6766  0.0792  0.1778
   42CHL1   H25 4280   4.079   4.284   5.580 -0.1887  0.9186 -0.6716
   42CHL1   C26 4281   4.051   4.092   5.502 -0.0707 -0.2151 -0.0387
   42CHL1  H26A 4282   4.055   4.115   5.393  0.8126 -1.2900 -0.2475
   42CHL1  H26B 4283   4.150   4.054   5.534  0.6627  1.3598 -0.3284
   42CHL1  H26C 4284   3.982   4.006   5.515 -2.7488  1.7925  0.0246
   42CHL1   C27 4285   3.865   4.270   5.535 -0.8941  0.2163  0.2710
   42CHL1  H27A 4286   3.794   4.185   5.527 -0.5839 -0.0855  0.6307
   42CHL1  H27B 4287   3.819   4.347   5.600  1.5275 -0.2979  2.8327
   42CHL1  H27C 4288   3.881   4.306   5.431 -1.2705 -0.1908  0.0692
   43CHL1    C3 4289   3.063   4.240   7.148 -0.2068 -0.7039  0.4518
   43CHL1    H3 4290   3.134   4.158   7.174 -0.8130 -0.9521  1.3464
   43CHL1    O3 4291   2.988   4.296   7.255  0.2073 -0.2782 -0.0114
   43CHL1   H3' 4292   2.939   4.216   7.278 -0.4935 -0.1264 -0.9290
   43CHL1    C4 4293   3.143   4.348   7.067  0.1034  0.5396  0.8091
   43CHL1   H4A 4294   3.079   4.435   7.042  1.0513  0.6104 -1.6650
   43CHL1   H4B 4295   3.230   4.382   7.128 -0.0320 -0.4982  1.6052
   43CHL1    C5 4296   3.192   4.297   6.938 -0.3245  0.6251  0.4690
   43CHL1    C6 4297   3.322   4.313   6.903 -0.2355  0.7056 -0.3134
   43CHL1    H6 4298   3.388   4.358   6.980 -1.5046 -1.5618  2.2713
   43CHL1    C7 4299   3.378   4.275   6.769 -0.5734 -0.7404 -0.4588
   43CHL1   H7A 4300   3.433   4.365   6.736  2.1386 -1.7856  0.9172
   43CHL1   H7B 4301   3.453   4.194   6.772  0.5892  0.2882 -0.9603
   43CHL1    C8 4302   3.260   4.261   6.663  0.1772  0.5038 -0.1592
   43CHL1    H8 4303   3.226   4.367   6.654 -0.8261  0.2316  0.2946
   43CHL1   C14 4304   3.321   4.217   6.528  0.4455 -0.3239 -0.7201
   43CHL1   H14 4305   3.382   4.130   6.558  0.1928  0.4370  2.3245
   43CHL1   C15 4306   3.430   4.312   6.461 -0.1856  0.1123  0.5098
   43CHL1  H15A 4307   3.404   4.420   6.463  0.6829  0.4837 -2.5277
   43CHL1  H15B 4308   3.530   4.317   6.510  0.9726 -2.0937 -1.4267
   43CHL1   C16 4309   3.445   4.242   6.325  0.3642 -0.6432  0.0085
   43CHL1  H16A 4310   3.460   4.319   6.246  2.0249  0.0693  0.9691
   43CHL1  H16B 4311   3.518   4.159   6.326 -1.5278 -2.3911  1.7133
   43CHL1   C17 4312   3.311   4.147   6.303  0.7471  0.4095 -0.2311
   43CHL1   H17 4313   3.345   4.043   6.318  2.3791  1.0213  0.6184
   43CHL1   C13 4314   3.223   4.178   6.422  0.1392 -0.5192  0.1760
   43CHL1   C18 4315   3.135   4.302   6.384  0.0831  0.5414 -0.4099
   43CHL1  H18A 4316   3.067   4.288   6.297 -1.2574  2.8588  0.1719
   43CHL1  H18B 4317   3.076   4.324   6.476  1.0214  0.3216  0.2592
   43CHL1  H18C 4318   3.200   4.390   6.360  0.4398  1.2114  2.6036
   43CHL1   C12 4319   3.142   4.061   6.482  0.3356 -0.5787  0.0012
   43CHL1  H12A 4320   3.066   4.023   6.410  1.4448  1.4644 -2.3834
   43CHL1  H12B 4321   3.208   3.973   6.497 -0.3221 -1.0821 -0.0125
   43CHL1   C11 4322   3.073   4.102   6.614 -0.2174  0.5345 -0.5710
   43CHL1  H11A 4323   2.984   4.164   6.591 -0.6662  0.0767 -0.0959
   43CHL1  H11B 4324   3.056   4.000   6.655 -0.7247  1.3805  1.4442
   43CHL1    C9 4325   3.155   4.168   6.722 -0.8522  0.5608 -0.1188
   43CHL1    H9 4326   3.218   4.085   6.760 -1.4133  0.0817 -0.2199
   43CHL1   C10 4327   3.087   4.227   6.846  0.7513  0.0737  0.4434
   43CHL1   C19 4328   2.989   4.331   6.794 -0.7309 -0.6111 -0.9908
   43CHL1  H19A 4329   3.034   4.395   6.715 -1.1595 -1.3109 -1.8166
   43CHL1  H19B 4330   2.896   4.291   6.748 -1.5160  0.7885 -0.6739
   43CHL1  H19C 4331   2.953   4.402   6.872  0.0647 -0.7357 -0.4984
   43CHL1    C1 4332   3.014   4.123   6.930  0.4878 -0.1992 -0.1033
   43CHL1   H1A 4333   2.926   4.078   6.880 -0.3414  0.5621  0.6159
   43CHL1   H1B 4334   3.083   4.040   6.954  1.3810  0.7813  0.8622
   43CHL1    C2 4335   2.953   4.181   7.060  0.0167  0.4210 -0.2241
   43CHL1   H2A 4336   2.903   4.097   7.112 -1.6296  0.9385 -0.8621
   43CHL1   H2B 4337   2.874   4.258   7.038 -0.0434  1.2666  2.6167
   43CHL1   C20 4338   3.258   4.152   6.160  0.2654 -0.1870 -0.2126
   43CHL1   H20 4339   3.227   4.255   6.133 -0.3889  0.0537  1.3628
   43CHL1   C21 4340   3.134   4.059   6.156  0.6676 -0.8043  0.1931
   43CHL1  H21A 4341   3.163   3.960   6.197  1.4271  0.5032  3.0945
   43CHL1  H21B 4342   3.088   4.043   6.056  1.3882 -1.5427 -0.0306
   43CHL1  H21C 4343   3.054   4.090   6.226  1.9266  2.6253  0.3211
   43CHL1   C22 4344   3.360   4.104   6.053 -0.1411 -0.0672 -0.1440
   43CHL1  H22A 4345   3.467   4.109   6.081  0.2247 -0.5754 -1.3985
   43CHL1  H22B 4346   3.338   3.996   6.045  1.7103 -0.3881 -1.4585
   43CHL1   C23 4347   3.341   4.178   5.919  0.3711  0.5778 -0.5465
   43CHL1  H23A 4348   3.234   4.175   5.889  0.4459 -1.3126 -0.7087
   43CHL1  H23B 4349   3.376   4.282   5.936  3.0760 -0.1339 -1.2378
   43CHL1   C24 4350   3.431   4.117   5.814  0.2630 -0.0520 -0.1344
   43CHL1  H24A 4351   3.535   4.100   5.847  0.8298  2.4522 -0.4542
   43CHL1  H24B 4352   3.374   4.024   5.790  0.2271 -0.2596  0.7233
   43CHL1   C25 4353   3.442   4.196   5.689  0.4004 -0.5380  0.1074
   43CHL1   H25 4354   3.338   4.223   5.660  0.1236 -0.7259  0.9100
   43CHL1   C26 4355   3.516   4.327   5.708  0.5943  0.1401  0.4086
   43CHL1  H26A 4356   3.458   4.394   5.776 -0.6921 -0.4967 -0.0171
   43CHL1  H26B 4357   3.613   4.309   5.759 -0.4159 -2.1596  1.6620
   43CHL1  H26C 4358   3.546   4.383   5.617  2.0600  2.7804  2.3773
   43CHL1   C27 4359   3.498   4.108   5.575  0.1803  0.8823 -0.5296
   43CHL1  H27A 4360   3.593   4.063   5.611  0.6734  0.4146 -2.3274
   43CHL1  H27B 4361   3.417   4.040   5.541 -1.8948  1.9859  1.8623
   43CHL1  H27C 4362   3.523   4.168   5.485  1.3007  0.7479 -0.3247
   44CHL1    C3 4363   5.418   4.917   6.857 -0.2295 -0.4276  0.1722
   44CHL1    H3 4364   5.318   4.964   6.870  0.4203  0.7542  1.1297
   44CHL1    O3 4365   5.452   4.864   6.986 -0.3637  0.0686 -0.6716
   44CHL1   H3' 4366   5.542   4.830   6.984 -0.0725  0.7442  0.2484
   44CHL1    C4 4367   5.428   4.808   6.750 -0.7503  0.4119  0.5315
   44CHL1   H4A 4368   5.529   4.779   6.786 -0.6445  1.1682  0.8579
   44CHL1   H4B 4369   5.358   4.726   6.777  0.1865  0.2323  2.5959
   44CHL1    C5 4370   5.424   4.847   6.601 -0.3461 -0.0256 -0.5779
   44CHL1    C6 4371   5.343   4.800   6.506 -0.0181 -0.0782  0.3031
   44CHL1    H6 4372   5.272   4.720   6.532  0.5985 -1.8829 -3.0184
   44CHL1    C7 4373   5.352   4.834   6.361 -0.1667 -0.8050  0.6104
   44CHL1   H7A 4374   5.335   4.747   6.293  0.5533 -1.8977  1.7694
   44CHL1   H7B 4375   5.264   4.899   6.347 -1.3810 -2.3097  0.9754
   44CHL1    C8 4376   5.475   4.907   6.323 -0.2084 -1.2534  0.2778
   44CHL1    H8 4377   5.558   4.834   6.312 -0.0980 -0.7745 -3.0791
   44CHL1   C14 4378   5.449   4.974   6.189 -0.9920 -0.7068 -0.2730
   44CHL1   H14 4379   5.364   5.045   6.193 -0.1487  0.4953 -2.4183
   44CHL1   C15 4380   5.420   4.875   6.072 -0.3678  0.0634 -0.6514
   44CHL1  H15A 4381   5.500   4.799   6.089 -0.7162 -0.3983 -1.0390
   44CHL1  H15B 4382   5.318   4.831   6.069  0.1036 -1.1840  0.4833
   44CHL1   C16 4383   5.450   4.969   5.951 -0.1197  0.6912  0.4968
   44CHL1  H16A 4384   5.521   4.919   5.882 -1.1015 -1.3605  0.9223
   44CHL1  H16B 4385   5.361   5.002   5.893  2.0429  1.9921 -2.3384
   44CHL1   C17 4386   5.516   5.105   6.006 -0.2225  0.7440 -0.7853
   44CHL1   H17 4387   5.430   5.174   6.025 -1.1209 -0.8097  1.2036
   44CHL1   C13 4388   5.567   5.064   6.145 -0.0708  0.5985  0.7712
   44CHL1   C18 4389   5.701   4.995   6.133 -0.4048  0.7710  0.4458
   44CHL1  H18A 4390   5.771   5.073   6.098 -0.6712 -0.3158 -2.8335
   44CHL1  H18B 4391   5.742   4.948   6.225  0.1557 -0.0255 -0.2001
   44CHL1  H18C 4392   5.701   4.921   6.050 -1.7072 -0.0018  1.0913
   44CHL1   C12 4393   5.571   5.174   6.259 -0.0952 -0.2721  0.2923
   44CHL1  H12A 4394   5.655   5.244   6.241 -0.2862  0.3373  1.5938
   44CHL1  H12B 4395   5.474   5.228   6.268 -0.5389 -1.0743  0.3714
   44CHL1   C11 4396   5.601   5.131   6.393  0.6385  0.4915  0.0792
   44CHL1  H11A 4397   5.710   5.109   6.395  0.8517  1.4603  2.0202
   44CHL1  H11B 4398   5.583   5.211   6.468  1.4952 -0.9959  1.9771
   44CHL1    C9 4399   5.503   5.020   6.433 -0.2969 -0.1076  0.2421
   44CHL1    H9 4400   5.410   5.081   6.431  0.1148  0.5221 -0.5176
   44CHL1   C10 4401   5.521   4.960   6.575  0.1414 -0.0780 -0.1664
   44CHL1   C19 4402   5.669   4.904   6.576  0.4626 -0.6401  0.2537
   44CHL1  H19A 4403   5.685   4.866   6.679 -2.3574  0.0044  1.0347
   44CHL1  H19B 4404   5.672   4.816   6.507 -1.2356  1.5254 -2.8357
   44CHL1  H19C 4405   5.748   4.976   6.546  2.1837 -2.1746  0.8884
   44CHL1    C1 4406   5.504   5.073   6.681 -0.1194 -0.2012 -0.0204
   44CHL1   H1A 4407   5.577   5.156   6.667  1.7813 -1.9151 -0.8248
   44CHL1   H1B 4408   5.404   5.120   6.667  0.7131  1.3578 -1.0514
   44CHL1    C2 4409   5.514   5.023   6.828 -0.0825  0.6995 -0.1528
   44CHL1   H2A 4410   5.493   5.114   6.888 -3.1553 -0.7300  1.1297
   44CHL1   H2B 4411   5.619   4.991   6.847  0.5170  1.1015 -2.4180
   44CHL1   C20 4412   5.603   5.181   5.905  0.0841  0.4773  0.2277
   44CHL1   H20 4413   5.693   5.121   5.881 -0.5641 -0.5535  0.2816
   44CHL1   C21 4414   5.661   5.306   5.977  0.0166  0.3198 -0.7031
   44CHL1  H21A 4415   5.712   5.273   6.070 -2.3714 -2.6735 -0.3198
   44CHL1  H21B 4416   5.571   5.354   6.021 -2.3426 -2.7493 -1.8518
   44CHL1  H21C 4417   5.717   5.375   5.910 -0.6001  1.3112 -0.2250
   44CHL1   C22 4418   5.520   5.218   5.777  0.4780 -0.2862  0.3936
   44CHL1  H22A 4419   5.483   5.117   5.747 -0.6382  0.4180 -0.7264
   44CHL1  H22B 4420   5.437   5.281   5.815  0.0930 -0.9579  0.6866
   44CHL1   C23 4421   5.587   5.286   5.653 -0.2513  0.1657  0.4090
   44CHL1  H23A 4422   5.515   5.297   5.570  0.8173  2.6961 -0.2694
   44CHL1  H23B 4423   5.619   5.388   5.682 -1.7332  0.8683 -0.3284
   44CHL1   C24 4424   5.699   5.199   5.600  0.3384  0.0446  0.2179
   44CHL1  H24A 4425   5.766   5.179   5.687  1.3443 -1.1877 -0.8057
   44CHL1  H24B 4426   5.662   5.104   5.555  0.8555 -1.0581  1.9983
   44CHL1   C25 4427   5.792   5.253   5.494 -0.4416 -0.4799 -0.0334
   44CHL1   H25 4428   5.739   5.267   5.397 -1.2994  0.1061  0.5083
   44CHL1   C26 4429   5.850   5.392   5.520 -0.1770  0.5934  0.4469
   44CHL1  H26A 4430   5.916   5.401   5.609 -0.3444  1.3003  0.5118
   44CHL1  H26B 4431   5.923   5.410   5.438 -1.5531 -0.6623 -1.1126
   44CHL1  H26C 4432   5.775   5.474   5.515 -0.5732  0.1773 -0.7813
   44CHL1   C27 4433   5.911   5.150   5.465  0.8634 -0.1052 -0.1464
   44CHL1  H27A 4434   5.952   5.105   5.558 -1.3905  0.2163  1.0671
   44CHL1  H27B 4435   5.885   5.080   5.384 -1.0082  1.7418 -1.2435
   44CHL1  H27C 4436   5.992   5.214   5.423  0.0546  0.1058 -1.4163
   45CHL1    C3 4437   6.509   3.268   6.981 -0.3021  0.3199  0.4219
   45CHL1    H3 4438   6.614   3.301   6.997  0.5505 -1.3364 -1.3170
   45CHL1    O3 4439   6.452   3.257   7.108 -0.5709 -0.4204 -0.5099
   45CHL1   H3' 4440   6.370   3.210   7.096 -1.4008  0.9611 -0.4509
   45CHL1    C4 4441   6.428   3.368   6.894 -0.2299 -0.1078  0.0271
   45CHL1   H4A 4442   6.329   3.317   6.889  0.3836 -1.5297  1.5636
   45CHL1   H4B 4443   6.429   3.461   6.956  0.0039 -0.5548  0.7048
   45CHL1    C5 4444   6.470   3.379   6.748  0.5570  0.3457 -0.3112
   45CHL1    C6 4445   6.498   3.497   6.683 -0.0008  0.7748  0.7126
   45CHL1    H6 4446   6.490   3.595   6.733 -1.4678  0.6162  0.8272
   45CHL1    C7 4447   6.543   3.509   6.540 -0.2255  0.5315  0.2622
   45CHL1   H7A 4448   6.496   3.592   6.483  3.7344  2.7148 -0.1871
   45CHL1   H7B 4449   6.648   3.545   6.545 -0.2910  1.7104 -3.5316
   45CHL1    C8 4450   6.523   3.382   6.455  0.3335  0.0052 -0.1423
   45CHL1    H8 4451   6.415   3.374   6.432  0.6912 -2.5071 -1.3337
   45CHL1   C14 4452   6.609   3.392   6.328  0.2248 -0.4190  0.3502
   45CHL1   H14 4453   6.715   3.403   6.358 -0.4396  1.0156  2.4101
   45CHL1   C15 4454   6.578   3.517   6.243  0.2062 -0.3553  0.6864
   45CHL1  H15A 4455   6.469   3.515   6.219  0.4663  1.6906 -0.9157
   45CHL1  H15B 4456   6.616   3.615   6.279  5.2745 -1.7401 -0.1221
   45CHL1   C16 4457   6.647   3.481   6.110  0.2258  0.1038 -0.1030
   45CHL1  H16A 4458   6.584   3.508   6.022  0.0028 -1.5825 -0.4994
   45CHL1  H16B 4459   6.736   3.547   6.098  0.3439 -0.1042 -0.3904
   45CHL1   C17 4460   6.674   3.325   6.111  0.4590  0.7661 -0.0220
   45CHL1   H17 4461   6.782   3.319   6.136  0.6316 -1.2277 -1.0573
   45CHL1   C13 4462   6.592   3.274   6.233  0.0546 -0.0521 -0.5231
   45CHL1   C18 4463   6.441   3.255   6.184 -0.0790 -1.0505 -0.4975
   45CHL1  H18A 4464   6.437   3.333   6.104  2.2474 -1.3002 -0.9436
   45CHL1  H18B 4465   6.426   3.154   6.141  1.6262 -0.7368 -1.9748
   45CHL1  H18C 4466   6.369   3.278   6.265 -0.7414  1.2151 -1.6179
   45CHL1   C12 4467   6.635   3.153   6.311  0.0787  0.0691 -0.8088
   45CHL1  H12A 4468   6.627   3.061   6.250 -1.5422  0.5354 -1.3381
   45CHL1  H12B 4469   6.738   3.169   6.349 -0.7196  1.3412  0.9526
   45CHL1   C11 4470   6.551   3.131   6.444 -0.0938 -0.4682  0.2774
   45CHL1  H11A 4471   6.448   3.096   6.425  0.0576 -0.2551 -0.9945
   45CHL1  H11B 4472   6.606   3.050   6.496  2.9717  1.3243  0.0824
   45CHL1    C9 4473   6.561   3.258   6.535 -0.0708  0.2424 -0.0799
   45CHL1    H9 4474   6.670   3.275   6.546 -0.1320  2.0570 -1.6128
   45CHL1   C10 4475   6.488   3.245   6.675  0.0172  0.3462 -0.1330
   45CHL1   C19 4476   6.348   3.185   6.651  0.5194 -0.2523  0.1650
   45CHL1  H19A 4477   6.289   3.177   6.744 -0.4934 -1.5033 -0.5584
   45CHL1  H19B 4478   6.293   3.242   6.573 -0.5688 -1.2422  0.1866
   45CHL1  H19C 4479   6.349   3.081   6.613  1.2041 -0.3271  0.3625
   45CHL1    C1 4480   6.576   3.158   6.764  0.0162  0.2217 -0.5139
   45CHL1   H1A 4481   6.578   3.056   6.719 -2.3597 -0.7670  1.3635
   45CHL1   H1B 4482   6.672   3.214   6.770  0.4845 -0.5778 -0.3747
   45CHL1    C2 4483   6.522   3.133   6.905  0.3965  0.5923  0.7050
   45CHL1   H2A 4484   6.598   3.075   6.961  1.3129  0.4722 -0.6139
   45CHL1   H2B 4485   6.428   3.074   6.892  1.4619 -0.8059 -1.1951
   45CHL1   C20 4486   6.661   3.266   5.969  0.3887  0.1553 -0.1844
   45CHL1   H20 4487   6.554   3.267   5.937  0.7615 -1.1901 -1.5781
   45CHL1   C21 4488   6.714   3.116   5.987 -0.0031 -0.0010 -0.2889
   45CHL1  H21A 4489   6.822   3.110   6.012  0.2011  0.5413 -1.0370
   45CHL1  H21B 4490   6.696   3.065   5.890 -0.1716  0.6746 -0.6126
   45CHL1  H21C 4491   6.658   3.052   6.059 -1.6575 -1.7453 -2.9462
   45CHL1   C22 4492   6.754   3.336   5.871  0.0879 -0.1291 -0.1537
   45CHL1  H22A 4493   6.771   3.443   5.894  0.9140 -0.7467  2.4846
   45CHL1  H22B 4494   6.857   3.295   5.886  0.2748  0.1618 -0.6061
   45CHL1   C23 4495   6.721   3.326   5.723  0.8137 -0.2751 -0.4755
   45CHL1  H23A 4496   6.714   3.220   5.692  3.6923 -0.3721 -1.0578
   45CHL1  H23B 4497   6.624   3.376   5.701  1.0574  0.3356 -0.1889
   45CHL1   C24 4498   6.839   3.390   5.635  0.3859 -0.8734 -0.3789
   45CHL1  H24A 4499   6.840   3.500   5.648  3.0799 -0.7620 -1.0044
   45CHL1  H24B 4500   6.937   3.348   5.664  1.9353  2.4795 -0.3403
   45CHL1   C25 4501   6.825   3.357   5.491 -0.2188  0.2867 -0.2813
   45CHL1   H25 4502   6.837   3.246   5.482  0.9043  0.1520  2.1636
   45CHL1   C26 4503   6.688   3.397   5.433  0.2425 -0.8802  0.2485
   45CHL1  H26A 4504   6.679   3.371   5.326 -0.4888 -1.1957  0.3816
   45CHL1  H26B 4505   6.601   3.356   5.488 -0.0171  0.7833  1.1693
   45CHL1  H26C 4506   6.677   3.507   5.451  0.8216 -1.1331  2.5601
   45CHL1   C27 4507   6.929   3.416   5.407  0.3630 -0.2717  0.2611
   45CHL1  H27A 4508   6.942   3.353   5.316  0.1093  0.3755 -0.2273
   45CHL1  H27B 4509   6.901   3.519   5.376 -1.0461 -0.4110  0.9860
   45CHL1  H27C 4510   7.025   3.423   5.462  1.5497  1.1162 -1.8762
   46CHL1    C3 4511   0.316   6.542   6.902  0.1582 -0.4827 -0.0703
   46CHL1    H3 4512   0.223   6.484   6.887  0.3261 -1.0051  0.8053
   46CHL1    O3 4513   0.342   6.539   7.041 -0.5531  0.2883 -0.3033
   46CHL1   H3' 4514   0.432   6.569   7.050  0.1797 -1.9307  0.6111
   46CHL1    C4 4515   0.423   6.462   6.826  0.5630 -0.3907 -0.6312
   46CHL1   H4A 4516   0.524   6.502   6.849  0.0836 -0.3021  1.5436
   46CHL1   H4B 4517   0.418   6.357   6.864  2.8312 -0.8675 -1.4902
   46CHL1    C5 4518   0.406   6.450   6.680 -0.8149  0.0765 -0.5774
   46CHL1    C6 4519   0.394   6.335   6.613 -0.6257  0.1273  1.3272
   46CHL1    H6 4520   0.399   6.234   6.656  0.5309 -0.9572 -1.1300
   46CHL1    C7 4521   0.381   6.337   6.465 -0.6278 -0.0839  0.1052
   46CHL1   H7A 4522   0.445   6.260   6.416  0.3065  0.3774  0.5616
   46CHL1   H7B 4523   0.284   6.294   6.432  0.6300 -2.8099 -0.3457
   46CHL1    C8 4524   0.387   6.471   6.382 -0.3976 -0.3673  0.0098
   46CHL1    H8 4525   0.495   6.487   6.361 -0.3294 -0.8875 -0.0557
   46CHL1   C14 4526   0.321   6.456   6.241 -0.0625  0.2195  0.8711
   46CHL1   H14 4527   0.214   6.432   6.261 -0.4138  0.9415 -0.0822
   46CHL1   C15 4528   0.360   6.333   6.151 -0.3127 -0.0621 -0.2794
   46CHL1  H15A 4529   0.469   6.320   6.134 -0.3455 -1.3172  0.3998
   46CHL1  H15B 4530   0.323   6.240   6.200 -2.1794  0.5197 -0.5191
   46CHL1   C16 4531   0.307   6.374   6.016  0.7246 -0.1469 -0.4092
   46CHL1  H16A 4532   0.380   6.360   5.933  0.5906 -1.7676 -0.2882
   46CHL1  H16B 4533   0.219   6.313   5.985  0.7811 -1.1540  1.3159
   46CHL1   C17 4534   0.256   6.523   6.037  0.1068 -0.3675  0.5027
   46CHL1   H17 4535   0.149   6.523   6.069 -0.3400 -1.4976 -0.8976
   46CHL1   C13 4536   0.327   6.584   6.167 -0.3358  0.5564  0.5264
   46CHL1   C18 4537   0.471   6.617   6.132 -0.3479 -0.1508  0.2921
   46CHL1  H18A 4538   0.535   6.630   6.221  3.3691 -1.8882 -1.9125
   46CHL1  H18B 4539   0.531   6.542   6.077  1.9548 -0.4236  2.9564
   46CHL1  H18C 4540   0.482   6.715   6.083  1.7179 -0.0562  0.8486
   46CHL1   C12 4541   0.260   6.694   6.246 -0.2235 -0.1734  0.1981
   46CHL1  H12A 4542   0.261   6.795   6.200 -2.7901 -0.3662 -0.4158
   46CHL1  H12B 4543   0.153   6.665   6.256 -0.6593  0.5038 -1.8799
   46CHL1   C11 4544   0.325   6.717   6.387  0.4150  0.1634 -0.9060
   46CHL1  H11A 4545   0.426   6.762   6.376  0.1867  0.9370  0.0244
   46CHL1  H11B 4546   0.268   6.799   6.436  0.3617 -0.1669 -0.4040
   46CHL1    C9 4547   0.331   6.584   6.466  0.3143 -0.4000 -0.6303
   46CHL1    H9 4548   0.223   6.563   6.477 -0.1508  1.7795 -0.5115
   46CHL1   C10 4549   0.388   6.592   6.606 -0.4432 -0.2096 -0.5207
   46CHL1   C19 4550   0.531   6.651   6.603 -0.4694  0.1728 -0.1955
   46CHL1  H19A 4551   0.531   6.758   6.571 -0.0574  0.3054  0.2230
   46CHL1  H19B 4552   0.562   6.656   6.710 -4.3056  3.1658  1.0040
   46CHL1  H19C 4553   0.591   6.601   6.524 -2.3206  1.2177 -2.3904
   46CHL1    C1 4554   0.301   6.689   6.697 -0.1395 -0.3194 -0.1692
   46CHL1   H1A 4555   0.302   6.792   6.654  2.0482 -0.7271 -1.2357
   46CHL1   H1B 4556   0.200   6.645   6.682 -1.0781  0.5467  2.8559
   46CHL1    C2 4557   0.316   6.684   6.855  0.1017 -0.2322  0.0616
   46CHL1   H2A 4558   0.230   6.742   6.895  0.8697  0.6909  0.4190
   46CHL1   H2B 4559   0.407   6.741   6.881  0.8187 -0.1947 -2.2909
   46CHL1   C20 4560   0.262   6.595   5.903 -0.3914 -0.7910 -0.3481
   46CHL1   H20 4561   0.368   6.609   5.871 -0.3007 -0.4870  0.0861
   46CHL1   C21 4562   0.204   6.738   5.936 -0.6793  0.8356  0.7343
   46CHL1  H21A 4563   0.259   6.796   6.013  0.4523  1.7068 -0.6868
   46CHL1  H21B 4564   0.097   6.731   5.966 -0.7494  1.7340  0.7377
   46CHL1  H21C 4565   0.211   6.794   5.840  1.5540 -0.9841 -0.2648
   46CHL1   C22 4566   0.183   6.525   5.792 -0.1765 -0.1786 -0.1159
   46CHL1  H22A 4567   0.244   6.441   5.752  1.6743  0.6275  0.9145
   46CHL1  H22B 4568   0.090   6.477   5.828 -0.7062 -0.7384 -2.0948
   46CHL1   C23 4569   0.151   6.623   5.678 -1.1251  0.4841  0.2110
   46CHL1  H23A 4570   0.064   6.692   5.682 -0.6032  1.5224 -3.2279
   46CHL1  H23B 4571   0.246   6.672   5.651 -0.5983  0.6527  2.2037
   46CHL1   C24 4572   0.114   6.536   5.561  0.3876 -0.5713  0.1709
   46CHL1  H24A 4573   0.200   6.478   5.520 -0.7354 -1.2764 -1.2633
   46CHL1  H24B 4574   0.042   6.456   5.588 -0.4489 -1.4990 -4.0649
   46CHL1   C25 4575   0.051   6.616   5.448 -0.0353  0.4110  0.3601
   46CHL1   H25 4576  -0.038   6.676   5.475 -0.4191 -0.0941  0.2301
   46CHL1   C26 4577   0.148   6.714   5.384  0.6541 -0.2671 -0.3784
   46CHL1  H26A 4578   0.183   6.792   5.456  0.2367  0.6243 -1.1123
   46CHL1  H26B 4579   0.239   6.666   5.343  1.3060  0.7242 -0.1436
   46CHL1  H26C 4580   0.091   6.763   5.303 -1.1929 -0.0820  0.9704
   46CHL1   C27 4581   0.015   6.517   5.339  0.1627 -0.7895  0.9265
   46CHL1  H27A 4582  -0.055   6.443   5.384 -1.8155 -1.0472 -2.2478
   46CHL1  H27B 4583  -0.031   6.577   5.257 -2.7601 -0.0250  2.9773
   46CHL1  H27C 4584   0.109   6.468   5.306  0.3863 -0.1169  0.5428
   47CHL1    C3 4585   6.701   6.433   6.806  0.2307  0.7039 -0.1219
   47CHL1    H3 4586   6.766   6.522   6.818 -1.0412  1.8947 -1.6345
   47CHL1    O3 4587   6.726   6.355   6.919 -0.9623  0.2518  0.6456
   47CHL1   H3' 4588   6.642   6.330   6.956 -2.4812  1.1306 -1.9117
   47CHL1    C4 4589   6.548   6.457   6.795 -0.3310  0.5497  0.1324
   47CHL1   H4A 4590   6.504   6.356   6.788 -2.2416  1.3526 -0.1570
   47CHL1   H4B 4591   6.518   6.502   6.892  0.0801 -0.9688  0.9931
   47CHL1    C5 4592   6.513   6.536   6.672  0.3162 -0.2367 -0.5043
   47CHL1    C6 4593   6.449   6.649   6.690  0.3573  0.3291 -0.5808
   47CHL1    H6 4594   6.411   6.673   6.791 -0.9445  0.8308 -1.1660
   47CHL1    C7 4595   6.400   6.734   6.578  0.1370 -0.5915  0.3562
   47CHL1   H7A 4596   6.290   6.743   6.583  0.1496  0.9069 -1.2318
   47CHL1   H7B 4597   6.435   6.839   6.589 -2.2331  0.1127  1.7291
   47CHL1    C8 4598   6.423   6.684   6.432 -0.2805 -0.1854  0.2212
   47CHL1    H8 4599   6.345   6.608   6.409  3.3458 -4.1748 -0.3246
   47CHL1   C14 4600   6.427   6.795   6.322 -0.0697 -0.7438 -0.2986
   47CHL1   H14 4601   6.508   6.864   6.353  0.2529 -2.0613  1.9864
   47CHL1   C15 4602   6.306   6.886   6.304  0.3848  0.5354 -0.3510
   47CHL1  H15A 4603   6.210   6.832   6.297  0.7800 -0.2656  0.2525
   47CHL1  H15B 4604   6.296   6.965   6.382  0.0601 -0.3921  0.5695
   47CHL1   C16 4605   6.331   6.951   6.164  1.1913 -0.3800  0.7811
   47CHL1  H16A 4606   6.242   6.935   6.099  0.8479  0.1991  1.1008
   47CHL1  H16B 4607   6.347   7.061   6.172 -1.8384  0.1260  0.8976
   47CHL1   C17 4608   6.451   6.872   6.103  0.5358 -0.4689 -0.0431
   47CHL1   H17 4609   6.543   6.931   6.125  0.8697  0.2284 -2.8982
   47CHL1   C13 4610   6.456   6.742   6.186  0.3508 -0.1214  0.3108
   47CHL1   C18 4611   6.344   6.651   6.139  0.0774 -0.3896  0.3345
   47CHL1  H18A 4612   6.250   6.709   6.127  1.3873  2.1339  1.4315
   47CHL1  H18B 4613   6.375   6.611   6.040 -1.1578 -2.2228  0.6459
   47CHL1  H18C 4614   6.325   6.565   6.206 -2.8711  0.0701  0.2246
   47CHL1   C12 4615   6.592   6.672   6.182 -0.0695  0.0254  0.0355
   47CHL1  H12A 4616   6.598   6.613   6.088 -1.0132 -0.0844  0.0317
   47CHL1  H12B 4617   6.669   6.750   6.200  0.5826  0.1217 -2.7925
   47CHL1   C11 4618   6.609   6.561   6.287  0.0127  0.2836  0.3476
   47CHL1  H11A 4619   6.542   6.477   6.256 -4.0206  3.7171 -1.3287
   47CHL1  H11B 4620   6.715   6.528   6.287  0.0573  0.2673  3.0283
   47CHL1    C9 4621   6.566   6.612   6.434  0.2552  0.3530 -0.2386
   47CHL1    H9 4622   6.639   6.690   6.464  0.6699 -0.3038  0.5000
   47CHL1   C10 4623   6.569   6.494   6.538 -0.2993  0.3234  0.6553
   47CHL1   C19 4624   6.491   6.366   6.487 -0.2877 -0.4015  0.7002
   47CHL1  H19A 4625   6.472   6.287   6.562  0.8896 -0.2735  1.1562
   47CHL1  H19B 4626   6.388   6.402   6.466  0.0158 -0.4222 -1.0356
   47CHL1  H19C 4627   6.545   6.311   6.406  1.2176 -0.2963  1.5969
   47CHL1    C1 4628   6.720   6.463   6.560  0.4681 -0.0101  0.1478
   47CHL1   H1A 4629   6.744   6.405   6.469 -2.3502  0.1576 -0.8005
   47CHL1   H1B 4630   6.783   6.554   6.570  1.2843 -0.3983 -1.2520
   47CHL1    C2 4631   6.752   6.366   6.684 -0.1496  0.1833  0.2603
   47CHL1   H2A 4632   6.861   6.344   6.694  0.3822  2.1942 -0.5489
   47CHL1   H2B 4633   6.710   6.265   6.669  2.8447 -1.1822  0.3866
   47CHL1   C20 4634   6.443   6.861   5.951  0.8080  0.6150  0.3537
   47CHL1   H20 4635   6.379   6.774   5.926 -0.9132  2.3024 -1.4973
   47CHL1   C21 4636   6.587   6.836   5.887  0.3001  0.1639  0.2229
   47CHL1  H21A 4637   6.656   6.919   5.913 -1.8426  1.9228  0.6186
   47CHL1  H21B 4638   6.597   6.814   5.778 -0.7306 -1.4029  0.4043
   47CHL1  H21C 4639   6.636   6.745   5.930 -1.3456 -0.8304  0.0879
   47CHL1   C22 4640   6.379   6.981   5.880 -0.3391  0.2067 -0.4112
   47CHL1  H22A 4641   6.269   6.978   5.900 -0.8075 -1.9849 -2.6939
   47CHL1  H22B 4642   6.428   7.068   5.929  1.2723 -0.5612 -0.5984
   47CHL1   C23 4643   6.388   6.994   5.724 -0.4875 -0.3358 -0.6590
   47CHL1  H23A 4644   6.494   7.007   5.696 -0.3558  1.5407  0.5240
   47CHL1  H23B 4645   6.362   6.895   5.680  1.8843 -0.3695 -2.1451
   47CHL1   C24 4646   6.303   7.107   5.661  0.2607  0.1552 -0.3314
   47CHL1  H24A 4647   6.195   7.080   5.666 -0.2422  2.2217  2.4997
   47CHL1  H24B 4648   6.319   7.198   5.721 -0.3686  0.7638 -1.0641
   47CHL1   C25 4649   6.348   7.136   5.518  0.1613 -0.4801  0.1638
   47CHL1   H25 4650   6.456   7.160   5.519  0.1456  0.2376 -3.4666
   47CHL1   C26 4651   6.334   7.018   5.418 -0.0363 -0.6983  0.2222
   47CHL1  H26A 4652   6.417   6.946   5.434  1.8071  1.3631  0.4541
   47CHL1  H26B 4653   6.231   6.976   5.416 -0.0569 -0.6733  0.7753
   47CHL1  H26C 4654   6.342   7.057   5.314 -0.6650 -0.9373  0.0771
   47CHL1   C27 4655   6.274   7.258   5.464  0.0644 -0.7493  0.1075
   47CHL1  H27A 4656   6.322   7.287   5.368 -0.0470  0.7534  0.4799
   47CHL1  H27B 4657   6.163   7.249   5.455  0.0990 -1.5458  0.3589
   47CHL1  H27C 4658   6.306   7.337   5.535  0.4221 -0.9745  0.1994
   48CHL1    C3 4659   2.090   5.544   6.947 -0.1017 -0.2630 -0.0142
   48CHL1    H3 4660   2.009   5.485   6.996  0.2445 -0.2831  0.5519
   48CHL1    O3 4661   2.169   5.600   7.051  0.0287 -0.2709  0.4824
   48CHL1   H3' 4662   2.128   5.686   7.065 -0.9653 -0.4090 -1.3155
   48CHL1    C4 4663   2.175   5.453   6.866  0.2198 -0.0546 -0.5559
   48CHL1   H4A 4664   2.263   5.512   6.830  1.1759 -1.0336  0.1007
   48CHL1   H4B 4665   2.229   5.376   6.925  0.7790  0.4128 -0.4519
   48CHL1    C5 4666   2.102   5.387   6.749 -0.5325  1.0462 -0.0774
   48CHL1    C6 4667   2.088   5.254   6.734 -0.3361 -0.2880 -0.3657
   48CHL1    H6 4668   2.128   5.187   6.811 -0.3752 -1.1450 -1.0682
   48CHL1    C7 4669   2.033   5.185   6.611 -0.4188 -0.2851  0.1814
   48CHL1   H7A 4670   2.098   5.098   6.588  0.2690  0.0794  0.6880
   48CHL1   H7B 4671   1.931   5.151   6.639 -0.6966  0.7357  0.4386
   48CHL1    C8 4672   2.008   5.281   6.491  0.0894 -0.1430 -0.3909
   48CHL1    H8 4673   2.107   5.300   6.445  0.4519 -0.5521  0.2156
   48CHL1   C14 4674   1.909   5.226   6.390  0.7831  0.2452 -0.0419
   48CHL1   H14 4675   1.812   5.211   6.442  1.0514  1.9229  0.9915
   48CHL1   C15 4676   1.957   5.089   6.339  0.2248  0.4594  0.0330
   48CHL1  H15A 4677   2.066   5.094   6.321  0.5217 -1.0979  1.1998
   48CHL1  H15B 4678   1.943   5.000   6.403  0.5869  0.2505 -0.1722
   48CHL1   C16 4679   1.872   5.076   6.211  0.5957  0.0280  0.1547
   48CHL1  H16A 4680   1.932   5.055   6.120  0.3068  1.6105 -0.4353
   48CHL1  H16B 4681   1.796   4.996   6.227  1.4657 -0.4844  1.9338
   48CHL1   C17 4682   1.801   5.218   6.188  0.2589  0.2841 -0.2242
   48CHL1   H17 4683   1.704   5.204   6.241 -0.8039 -1.3595 -2.4310
   48CHL1   C13 4684   1.888   5.315   6.269  0.0485  0.4974  0.2362
   48CHL1   C18 4685   2.009   5.356   6.193 -0.0985 -0.0036 -0.1464
   48CHL1  H18A 4686   2.071   5.432   6.244  1.8118 -1.3525 -0.3565
   48CHL1  H18B 4687   2.074   5.276   6.151  0.9724  0.1537  1.1346
   48CHL1  H18C 4688   1.973   5.409   6.102 -0.3037  0.8445  0.4141
   48CHL1   C12 4689   1.811   5.439   6.328  0.2071  0.1032  0.0782
   48CHL1  H12A 4690   1.795   5.513   6.247  1.9149  0.2988 -0.1162
   48CHL1  H12B 4691   1.717   5.402   6.372  0.5780  2.1261  2.8727
   48CHL1   C11 4692   1.902   5.505   6.437  0.3653  0.2934 -0.0597
   48CHL1  H11A 4693   1.988   5.548   6.382  0.2476  0.9223  0.2403
   48CHL1  H11B 4694   1.843   5.591   6.473 -0.2242 -0.0212 -0.2574
   48CHL1    C9 4695   1.951   5.410   6.556 -0.0677 -0.1439  0.0815
   48CHL1    H9 4696   1.856   5.379   6.604 -0.3975 -3.4386 -2.3504
   48CHL1   C10 4697   2.050   5.483   6.653 -0.4858  0.1517  0.3405
   48CHL1   C19 4698   2.165   5.558   6.574  0.3875 -0.6099 -0.0968
   48CHL1  H19A 4699   2.139   5.623   6.488 -1.3015 -3.4467 -1.8894
   48CHL1  H19B 4700   2.208   5.628   6.649  0.1568  0.3922 -0.8812
   48CHL1  H19C 4701   2.242   5.487   6.537  0.5463  0.6719 -2.3900
   48CHL1    C1 4702   1.967   5.585   6.735  0.3952 -0.7707 -0.4389
   48CHL1   H1A 4703   1.943   5.677   6.677  1.8652 -0.3934 -0.4824
   48CHL1   H1B 4704   1.874   5.535   6.770  1.0656 -0.2284  2.3264
   48CHL1    C2 4705   2.031   5.649   6.859 -0.2857  0.9329 -0.0588
   48CHL1   H2A 4706   1.957   5.707   6.918 -0.1180  0.1608  0.9387
   48CHL1   H2B 4707   2.114   5.721   6.841  3.0106 -2.0058  1.8635
   48CHL1   C20 4708   1.779   5.236   6.039 -0.1831 -0.4485  0.4269
   48CHL1   H20 4709   1.872   5.251   5.981 -0.7800  0.0818 -0.4237
   48CHL1   C21 4710   1.695   5.363   6.021  0.0237 -0.2080  0.3845
   48CHL1  H21A 4711   1.594   5.334   6.056  1.8175 -4.6807  2.7672
   48CHL1  H21B 4712   1.742   5.449   6.074  0.1704 -0.6922  1.0597
   48CHL1  H21C 4713   1.694   5.393   5.915 -0.6928  0.9003  0.6907
   48CHL1   C22 4714   1.708   5.119   5.980  0.0632  0.0176  0.1545
   48CHL1  H22A 4715   1.765   5.024   5.990 -0.1387 -0.4547 -2.4381
   48CHL1  H22B 4716   1.609   5.111   6.030  0.7666  0.5425  1.6892
   48CHL1   C23 4717   1.690   5.127   5.833  0.7734  0.6071 -0.3116
   48CHL1  H23A 4718   1.627   5.214   5.806 -1.1415 -0.2726  1.0509
   48CHL1  H23B 4719   1.791   5.153   5.795  1.6095 -0.2318  1.2116
   48CHL1   C24 4720   1.615   5.004   5.770 -0.6194  0.7062  0.4268
   48CHL1  H24A 4721   1.677   4.914   5.788 -1.4570  0.4352  2.1845
   48CHL1  H24B 4722   1.516   4.980   5.815 -0.5179  1.2658  0.9698
   48CHL1   C25 4723   1.597   5.015   5.619 -0.5214 -0.2512 -0.4907
   48CHL1   H25 4724   1.536   5.106   5.598  1.4553  1.1450 -0.5014
   48CHL1   C26 4725   1.737   5.040   5.546  0.2666 -0.3671  0.3602
   48CHL1  H26A 4726   1.719   5.077   5.443  2.3581  1.9255  0.7236
   48CHL1  H26B 4727   1.794   5.124   5.591  1.6182 -0.1512 -1.6368
   48CHL1  H26C 4728   1.793   4.945   5.536  0.4043 -0.3672  1.0825
   48CHL1   C27 4729   1.526   4.893   5.566 -0.0158  0.2690 -0.2201
   48CHL1  H27A 4730   1.432   4.870   5.621 -1.3309  1.9856 -1.6112
   48CHL1  H27B 4731   1.505   4.901   5.457 -0.4048  0.4686 -0.1334
   48CHL1  H27C 4732   1.591   4.805   5.584 -0.6312 -0.0955  0.2478
   49CHL1    C3 4733   1.292   1.798   3.738 -0.7295  0.1356  0.0393
   49CHL1    H3 4734   1.198   1.852   3.763  0.2570  2.0235 -0.1968
   49CHL1    O3 4735   1.304   1.797   3.597  0.0527 -0.3441  0.3327
   49CHL1   H3' 4736   1.389   1.757   3.580  0.7412  1.1905  0.0286
   49CHL1    C4 4737   1.415   1.862   3.793  0.3346 -0.4474  0.7350
   49CHL1   H4A 4738   1.511   1.822   3.754 -0.9437 -3.1607  0.1873
   49CHL1   H4B 4739   1.416   1.966   3.754  0.5938 -0.0394  1.7928
   49CHL1    C5 4740   1.428   1.857   3.942  0.6732  0.4660 -0.0857
   49CHL1    C6 4741   1.427   1.965   4.026 -0.3285  0.9763  0.3949
   49CHL1    H6 4742   1.442   2.063   3.978  2.4123  1.0883  1.3125
   49CHL1    C7 4743   1.437   1.964   4.173 -0.4259 -0.3653  0.0256
   49CHL1   H7A 4744   1.519   2.037   4.193  0.5106 -1.4306  0.1540
   49CHL1   H7B 4745   1.338   2.000   4.207 -0.1647  0.0601  0.3607
   49CHL1    C8 4746   1.472   1.825   4.232  0.1783 -0.3567 -0.2972
   49CHL1    H8 4747   1.583   1.819   4.226  0.3823  0.0276  1.9371
   49CHL1   C14 4748   1.434   1.816   4.378  0.5741 -0.0084 -0.0139
   49CHL1   H14 4749   1.326   1.840   4.374  0.4741 -0.6015 -3.1159
   49CHL1   C15 4750   1.487   1.924   4.469 -0.1207 -0.3431 -0.0127
   49CHL1  H15A 4751   1.592   1.950   4.445 -0.0370 -0.0523  0.6443
   49CHL1  H15B 4752   1.432   2.020   4.457  1.0898  0.4257  0.4330
   49CHL1   C16 4753   1.458   1.861   4.602  0.2981  0.2096  0.3795
   49CHL1  H16A 4754   1.556   1.874   4.654 -0.2234  1.3693  1.1279
   49CHL1  H16B 4755   1.385   1.919   4.662  0.6182 -0.6551  1.6464
   49CHL1   C17 4756   1.409   1.711   4.591 -0.2887  0.0758 -0.0008
   49CHL1   H17 4757   1.298   1.719   4.594 -0.3037 -0.2643  1.6094
   49CHL1   C13 4758   1.451   1.682   4.453 -0.3721  0.9260 -0.4306
   49CHL1   C18 4759   1.611   1.654   4.451  0.6938  0.4743 -0.4271
   49CHL1  H18A 4760   1.651   1.616   4.355  0.8358  1.2086 -0.6685
   49CHL1  H18B 4761   1.673   1.741   4.482  1.0240  0.5267 -1.2301
   49CHL1  H18C 4762   1.638   1.573   4.523  0.7944  2.4352  1.8904
   49CHL1   C12 4763   1.389   1.569   4.379 -0.5349 -0.4997  0.1846
   49CHL1  H12A 4764   1.415   1.467   4.413  1.4809 -0.5643 -1.3760
   49CHL1  H12B 4765   1.278   1.576   4.389 -0.9384 -2.7837 -1.6540
   49CHL1   C11 4766   1.413   1.576   4.225  0.4476  0.0029  0.1230
   49CHL1  H11A 4767   1.519   1.542   4.225  0.7179  0.6516  2.7178
   49CHL1  H11B 4768   1.340   1.507   4.178  0.3106  0.2351 -0.0073
   49CHL1    C9 4769   1.397   1.715   4.158 -0.0519 -0.1480 -0.7568
   49CHL1    H9 4770   1.291   1.741   4.178  0.2984  0.0603  1.0963
   49CHL1   C10 4771   1.412   1.715   4.008 -0.0288  0.1984  0.1141
   49CHL1   C19 4772   1.553   1.643   3.977 -0.3015 -0.0206 -0.4936
   49CHL1  H19A 4773   1.620   1.674   4.061  1.0086  1.9959 -2.1787
   49CHL1  H19B 4774   1.557   1.532   3.972  0.9185 -0.1900  2.2190
   49CHL1  H19C 4775   1.590   1.682   3.879 -0.5338 -0.4934 -0.7709
   49CHL1    C1 4776   1.287   1.646   3.938 -0.8627  0.3795 -0.2163
   49CHL1   H1A 4777   1.283   1.537   3.954  1.8581  0.5073  2.0986
   49CHL1   H1B 4778   1.196   1.699   3.973 -2.8227 -1.5161 -2.1104
   49CHL1    C2 4779   1.295   1.659   3.781 -0.2642 -0.0639  0.3009
   49CHL1   H2A 4780   1.212   1.599   3.735 -0.1112  0.4698 -0.6972
   49CHL1   H2B 4781   1.388   1.614   3.741  0.3370  1.8108 -0.4907
   49CHL1   C20 4782   1.445   1.620   4.706 -0.5584  0.0990  0.1263
   49CHL1   H20 4783   1.555   1.629   4.722 -0.1971  0.5406 -2.1592
   49CHL1   C21 4784   1.423   1.470   4.695 -0.2752  0.2133  0.0794
   49CHL1  H21A 4785   1.446   1.421   4.792  0.3530 -0.9147 -0.6193
   49CHL1  H21B 4786   1.483   1.411   4.622  0.4482  0.9429  0.0634
   49CHL1  H21C 4787   1.315   1.452   4.677  0.4162 -3.3637 -1.3009
   49CHL1   C22 4788   1.386   1.676   4.839 -0.2610  0.4715 -0.4923
   49CHL1  H22A 4789   1.417   1.783   4.834  0.3877  0.3288  0.2459
   49CHL1  H22B 4790   1.275   1.675   4.831 -0.1519  0.6757 -2.7840
   49CHL1   C23 4791   1.431   1.600   4.972  0.1741 -0.2106  0.4778
   49CHL1  H23A 4792   1.379   1.503   4.978 -0.5871  0.0033 -1.6437
   49CHL1  H23B 4793   1.538   1.577   4.951 -0.1835  0.3420 -2.4116
   49CHL1   C24 4794   1.419   1.678   5.102  0.0100  0.5322  0.4445
   49CHL1  H24A 4795   1.476   1.772   5.115 -0.2119  0.4473  2.2349
   49CHL1  H24B 4796   1.313   1.710   5.116 -0.3964  0.5330 -2.0330
   49CHL1   C25 4797   1.459   1.594   5.223 -0.2854  0.1299  0.0982
   49CHL1   H25 4798   1.402   1.498   5.224  2.4478 -1.6170 -0.8406
   49CHL1   C26 4799   1.609   1.555   5.216  0.5311 -0.0195 -0.4474
   49CHL1  H26A 4800   1.632   1.486   5.300 -0.1972  1.5348  1.1015
   49CHL1  H26B 4801   1.624   1.501   5.120  1.6244 -2.0727  0.8131
   49CHL1  H26C 4802   1.681   1.639   5.216  2.8954 -1.8667  2.3857
   49CHL1   C27 4803   1.436   1.675   5.350 -0.3098 -0.1389  0.1153
   49CHL1  H27A 4804   1.482   1.776   5.348 -3.1508  1.3179  1.5863
   49CHL1  H27B 4805   1.332   1.707   5.374 -0.8930  1.0985 -3.4079
   49CHL1  H27C 4806   1.473   1.628   5.443 -0.1578 -1.4447 -0.5928
   50CHL1    C3 4807   6.521   5.621   3.683 -0.0417  0.9911 -0.8180
   50CHL1    H3 4808   6.623   5.575   3.679 -0.6232 -0.8699  2.1083
   50CHL1    O3 4809   6.485   5.654   3.555  0.4264 -0.7645  0.4836
   50CHL1   H3' 4810   6.447   5.573   3.521 -2.7193 -0.5263  2.9835
   50CHL1    C4 4811   6.426   5.508   3.736 -0.3406  0.4707  0.2394
   50CHL1   H4A 4812   6.317   5.525   3.722 -0.1825  1.8679  0.5930
   50CHL1   H4B 4813   6.454   5.424   3.669  0.3318  1.7036 -1.0769
   50CHL1    C5 4814   6.445   5.472   3.881 -0.0158 -0.1733 -0.4259
   50CHL1    C6 4815   6.467   5.350   3.932 -0.3050 -0.1404  0.3444
   50CHL1    H6 4816   6.484   5.269   3.860 -1.6937 -1.3826  1.3432
   50CHL1    C7 4817   6.450   5.307   4.072 -0.3991 -0.1035  0.1868
   50CHL1   H7A 4818   6.375   5.226   4.080 -2.2250  1.5210  0.1201
   50CHL1   H7B 4819   6.552   5.274   4.104  0.4362  0.8148 -1.4119
   50CHL1    C8 4820   6.408   5.425   4.169 -0.3960 -0.0839  0.0563
   50CHL1    H8 4821   6.299   5.437   4.147 -0.2003  2.2166  0.0920
   50CHL1   C14 4822   6.420   5.394   4.315  0.5821 -0.0569  0.3830
   50CHL1   H14 4823   6.529   5.377   4.331  0.6196  0.1506  0.3446
   50CHL1   C15 4824   6.342   5.262   4.356  0.2538 -0.7135 -0.5157
   50CHL1  H15A 4825   6.249   5.260   4.296  0.6157 -0.8640 -1.0862
   50CHL1  H15B 4826   6.402   5.172   4.330 -2.2919 -2.8741  0.7129
   50CHL1   C16 4827   6.306   5.293   4.503 -0.1521  0.1358  0.0861
   50CHL1  H16A 4828   6.195   5.301   4.505 -0.3603 -0.2129 -3.3745
   50CHL1  H16B 4829   6.358   5.221   4.570  1.0250  0.7691 -0.1219
   50CHL1   C17 4830   6.370   5.434   4.542 -0.2777  0.3630 -0.5096
   50CHL1   H17 4831   6.479   5.423   4.563 -0.4027 -2.6274 -1.0429
   50CHL1   C13 4832   6.371   5.509   4.399  0.2308  0.0911  0.5201
   50CHL1   C18 4833   6.221   5.551   4.366 -0.2325  1.2681  0.1260
   50CHL1  H18A 4834   6.142   5.477   4.389 -1.6361  2.1736 -1.5308
   50CHL1  H18B 4835   6.201   5.653   4.405 -0.1195  2.2964 -2.3283
   50CHL1  H18C 4836   6.197   5.582   4.262  1.9754 -1.4828 -1.3645
   50CHL1   C12 4837   6.475   5.619   4.377 -0.0745  0.0438 -0.1219
   50CHL1  H12A 4838   6.460   5.708   4.443 -2.7272  0.0402 -0.6180
   50CHL1  H12B 4839   6.575   5.575   4.397 -0.1346 -0.2151 -0.3922
   50CHL1   C11 4840   6.468   5.673   4.238  0.8212  0.0632 -0.5178
   50CHL1  H11A 4841   6.371   5.726   4.235  0.4943 -0.4823  0.0320
   50CHL1  H11B 4842   6.543   5.755   4.229  1.6228 -0.4201  1.2347
   50CHL1    C9 4843   6.483   5.552   4.128 -0.1378 -0.6586  0.2595
   50CHL1    H9 4844   6.590   5.521   4.133  0.4083  1.2384  1.9650
   50CHL1   C10 4845   6.449   5.593   3.981  0.2080  0.6684  0.2676
   50CHL1   C19 4846   6.298   5.642   3.987  0.3284 -0.2233 -0.2193
   50CHL1  H19A 4847   6.309   5.740   4.038 -3.7811  0.1737  0.2749
   50CHL1  H19B 4848   6.247   5.661   3.890  2.4963 -1.8485 -1.7686
   50CHL1  H19C 4849   6.231   5.574   4.044 -0.1207 -0.6342 -1.2156
   50CHL1    C1 4850   6.531   5.710   3.922 -0.7294  0.0218 -0.1051
   50CHL1   H1A 4851   6.514   5.799   3.985 -1.2283 -0.5086  0.5240
   50CHL1   H1B 4852   6.636   5.679   3.937 -0.6729  0.2089 -0.1149
   50CHL1    C2 4853   6.508   5.744   3.771 -0.3277 -0.4154 -0.6132
   50CHL1   H2A 4854   6.571   5.825   3.728  0.3556  0.4686  1.8365
   50CHL1   H2B 4855   6.402   5.780   3.771 -0.0003  0.5750 -0.4674
   50CHL1   C20 4856   6.296   5.508   4.654  0.2947  0.2743  0.2890
   50CHL1   H20 4857   6.188   5.512   4.625  0.3479 -1.3839 -0.2229
   50CHL1   C21 4858   6.340   5.655   4.676 -0.5784  0.0073 -0.1374
   50CHL1  H21A 4859   6.308   5.723   4.594 -0.0534 -1.6760 -1.7906
   50CHL1  H21B 4860   6.451   5.658   4.679 -0.6032  0.7475  0.5364
   50CHL1  H21C 4861   6.294   5.693   4.770 -1.5332  0.1501 -0.6420
   50CHL1   C22 4862   6.299   5.429   4.788  0.2649 -0.7045 -0.1860
   50CHL1  H22A 4863   6.221   5.475   4.852  0.4848 -0.8274  0.1720
   50CHL1  H22B 4864   6.258   5.328   4.764  0.9289 -1.0127 -0.0605
   50CHL1   C23 4865   6.437   5.398   4.844 -0.1614  0.1175 -0.6279
   50CHL1  H23A 4866   6.513   5.379   4.764  2.5928  0.7501  1.6824
   50CHL1  H23B 4867   6.485   5.491   4.881  0.6546 -0.0772 -1.1437
   50CHL1   C24 4868   6.436   5.289   4.949 -0.3970  0.1720 -0.8160
   50CHL1  H24A 4869   6.406   5.333   5.047 -0.1090 -1.6873  0.1526
   50CHL1  H24B 4870   6.359   5.212   4.926  0.0713 -0.0422 -1.7061
   50CHL1   C25 4871   6.567   5.211   4.971  0.3730  0.1321  0.5088
   50CHL1   H25 4872   6.554   5.130   5.046  0.5527  0.1096  0.5175
   50CHL1   C26 4873   6.606   5.125   4.850  0.2940 -0.1881  0.1681
   50CHL1  H26A 4874   6.703   5.074   4.867  0.5736 -0.5403 -2.1656
   50CHL1  H26B 4875   6.532   5.043   4.839 -0.8914  0.8722  0.0514
   50CHL1  H26C 4876   6.608   5.181   4.754 -0.3497  1.9908  1.3540
   50CHL1   C27 4877   6.680   5.297   5.015  0.3602 -0.2497  0.4334
   50CHL1  H27A 4878   6.647   5.355   5.103 -1.9614 -1.9179  0.7347
   50CHL1  H27B 4879   6.774   5.243   5.040  0.1376 -0.6696  0.3629
   50CHL1  H27C 4880   6.708   5.378   4.944 -0.3460  0.1155  0.5678
   51CHL1    C3 4881   0.476   0.428   3.705  0.6411  0.0586 -0.5685
   51CHL1    H3 4882   0.534   0.502   3.765 -1.2491  0.8224  0.4009
   51CHL1    O3 4883   0.447   0.485   3.575 -0.2073  0.3611  0.4974
   51CHL1   H3' 4884   0.402   0.417   3.524  0.7384  1.1327 -1.4979
   51CHL1    C4 4885   0.542   0.294   3.690  0.7629  0.9885 -1.0018
   51CHL1   H4A 4886   0.477   0.222   3.636 -0.0986  2.2538 -1.7332
   51CHL1   H4B 4887   0.639   0.308   3.637  3.0152  0.3653  2.6130
   51CHL1    C5 4888   0.574   0.232   3.820 -0.2802 -0.1675  0.3023
   51CHL1    C6 4889   0.699   0.209   3.860 -0.4858 -0.5410  0.5458
   51CHL1    H6 4890   0.775   0.219   3.782  0.1209  2.4364  1.3795
   51CHL1    C7 4891   0.750   0.150   3.985  0.6409 -0.4603 -0.1237
   51CHL1   H7A 4892   0.829   0.075   3.965  0.1334 -0.8681 -0.6406
   51CHL1   H7B 4893   0.783   0.235   4.048  1.5851 -0.9060 -0.0133
   51CHL1    C8 4894   0.632   0.082   4.069 -0.2075  0.0103 -0.6825
   51CHL1    H8 4895   0.596  -0.012   4.022 -2.4474 -1.0618  2.7473
   51CHL1   C14 4896   0.673   0.057   4.212 -0.7366 -0.6302  0.1081
   51CHL1   H14 4897   0.703   0.155   4.255  0.1848 -0.5724 -0.6349
   51CHL1   C15 4898   0.792  -0.041   4.226 -0.0704 -0.2604  0.4179
   51CHL1  H15A 4899   0.764  -0.125   4.159 -0.3064  0.5627 -0.5499
   51CHL1  H15B 4900   0.895  -0.014   4.195 -0.3157  0.8183  0.4818
   51CHL1   C16 4901   0.780  -0.082   4.374 -0.0502  0.2045 -0.0124
   51CHL1  H16A 4902   0.776  -0.192   4.390  0.3018 -0.2926 -2.8647
   51CHL1  H16B 4903   0.861  -0.031   4.430 -0.8675  0.1256  1.3046
   51CHL1   C17 4904   0.640  -0.028   4.426  0.1631  0.1646 -0.4535
   51CHL1   H17 4905   0.658   0.069   4.477  1.1282 -1.4919  2.5794
   51CHL1   C13 4906   0.559   0.003   4.307 -0.0126 -0.3727 -1.1184
   51CHL1   C18 4907   0.492  -0.130   4.243  0.0600 -0.1153 -0.0786
   51CHL1  H18A 4908   0.424  -0.166   4.324  0.9075 -3.6686 -0.7445
   51CHL1  H18B 4909   0.446  -0.099   4.147  1.4052  2.5870  0.0569
   51CHL1  H18C 4910   0.574  -0.201   4.217  1.7414  0.8618  2.1984
   51CHL1   C12 4911   0.454   0.118   4.313  0.2195 -0.1379  0.0652
   51CHL1  H12A 4912   0.375   0.080   4.382  0.0620 -1.0136 -0.5824
   51CHL1  H12B 4913   0.492   0.212   4.359  0.4024 -0.8362  1.3643
   51CHL1   C11 4914   0.394   0.149   4.173 -0.4246  0.3133 -0.7691
   51CHL1  H11A 4915   0.328   0.069   4.133  0.6639 -1.7744  1.4132
   51CHL1  H11B 4916   0.332   0.242   4.176 -0.1786  0.5063 -1.4305
   51CHL1    C9 4917   0.505   0.177   4.067  0.2244  0.2058 -0.6304
   51CHL1    H9 4918   0.557   0.270   4.097  1.5804 -0.4081 -0.9923
   51CHL1   C10 4919   0.454   0.210   3.920 -0.0702 -0.6499 -0.5852
   51CHL1   C19 4920   0.366   0.098   3.874  0.4067  0.1028  0.1838
   51CHL1  H19A 4921   0.334   0.118   3.769 -0.4314  0.2275  0.4493
   51CHL1  H19B 4922   0.407  -0.005   3.885  0.4232  0.2522  1.7584
   51CHL1  H19C 4923   0.268   0.094   3.926 -0.3440  2.8481 -0.8259
   51CHL1    C1 4924   0.373   0.346   3.924  0.9795 -0.2604 -0.6267
   51CHL1   H1A 4925   0.274   0.326   3.970 -0.8339  1.7807 -3.2725
   51CHL1   H1B 4926   0.416   0.426   3.987 -3.4673  0.8621  1.3479
   51CHL1    C2 4927   0.352   0.417   3.790 -0.3021 -0.4163 -0.0768
   51CHL1   H2A 4928   0.296   0.512   3.803 -0.2600 -0.5249  0.9930
   51CHL1   H2B 4929   0.295   0.358   3.715  0.1665  2.1276 -2.6210
   51CHL1   C20 4930   0.577  -0.114   4.531  0.2616  0.1383  0.1150
   51CHL1   H20 4931   0.547  -0.215   4.496  1.1365  0.1720 -0.7630
   51CHL1   C21 4932   0.464  -0.043   4.602  0.0947 -0.3146  0.2321
   51CHL1  H21A 4933   0.487   0.065   4.612  2.6044 -0.5850 -1.7866
   51CHL1  H21B 4934   0.449  -0.078   4.706  2.6417  0.2791  0.8675
   51CHL1  H21C 4935   0.374  -0.071   4.543  2.5493 -3.2052 -2.5491
   51CHL1   C22 4936   0.683  -0.135   4.638 -0.5543 -0.5754 -0.6048
   51CHL1  H22A 4937   0.783  -0.162   4.598  0.9968  2.2098  1.0420
   51CHL1  H22B 4938   0.696  -0.036   4.688 -2.5466 -0.4433 -0.2527
   51CHL1   C23 4939   0.642  -0.235   4.741  0.5112 -0.3563 -0.2031
   51CHL1  H23A 4940   0.543  -0.229   4.791  0.2394 -1.7343 -0.5473
   51CHL1  H23B 4941   0.662  -0.338   4.706 -1.9491 -0.5373 -1.3106
   51CHL1   C24 4942   0.731  -0.227   4.869 -0.1610 -0.2510 -0.4382
   51CHL1  H24A 4943   0.833  -0.262   4.845  1.1227  3.5854 -1.3625
   51CHL1  H24B 4944   0.731  -0.123   4.909  0.3286 -0.6267  0.5716
   51CHL1   C25 4945   0.690  -0.313   4.992  0.1612 -0.4347  0.4716
   51CHL1   H25 4946   0.676  -0.421   4.971  1.9950 -1.7462  4.8405
   51CHL1   C26 4947   0.805  -0.310   5.093  0.3323  0.2808  0.0894
   51CHL1  H26A 4948   0.803  -0.214   5.148  1.4564  0.2915  0.1467
   51CHL1  H26B 4949   0.794  -0.392   5.167 -1.5427  1.0380  0.6904
   51CHL1  H26C 4950   0.902  -0.341   5.047 -1.0887 -0.7362 -2.4299
   51CHL1   C27 4951   0.562  -0.263   5.061  0.4126  0.1622  0.2456
   51CHL1  H27A 4952   0.556  -0.319   5.156 -1.2213 -0.5356 -0.2383
   51CHL1  H27B 4953   0.577  -0.156   5.089 -1.0450  0.4472 -0.0125
   51CHL1  H27C 4954   0.469  -0.285   5.004  0.1514 -1.3145  1.2065
   52CHL1    C3 4955   5.382   1.806   3.658  0.1787  0.5277  0.0058
   52CHL1    H3 4956   5.361   1.912   3.632  0.4637  0.1823 -1.7327
   52CHL1    O3 4957   5.363   1.729   3.542  0.1487 -0.1668  0.5393
   52CHL1   H3' 4958   5.357   1.635   3.559 -1.8964 -0.1326  0.2463
   52CHL1    C4 4959   5.525   1.798   3.724  0.0909  1.3891  0.1750
   52CHL1   H4A 4960   5.549   1.692   3.704 -0.1086  1.1588  1.1534
   52CHL1   H4B 4961   5.588   1.852   3.649  0.2304 -0.3883 -1.0460
   52CHL1    C5 4962   5.542   1.854   3.865 -0.4520  0.4141 -0.3738
   52CHL1    C6 4963   5.648   1.931   3.896  0.7660  0.5685  0.1211
   52CHL1    H6 4964   5.717   1.961   3.815 -1.4346 -1.1735 -2.6059
   52CHL1    C7 4965   5.691   1.973   4.034  0.0143  0.4107 -0.1702
   52CHL1   H7A 4966   5.800   1.951   4.041  0.0105 -0.4422 -2.1582
   52CHL1   H7B 4967   5.671   2.082   4.041 -2.5681  0.0273 -0.5236
   52CHL1    C8 4968   5.603   1.901   4.142 -0.1174  0.9125  0.7734
   52CHL1    H8 4969   5.651   1.804   4.170  1.2611  1.7595  1.4749
   52CHL1   C14 4970   5.609   1.985   4.267 -0.5785 -0.6137 -0.2996
   52CHL1   H14 4971   5.567   2.082   4.233 -2.5398 -2.3450 -3.2474
   52CHL1   C15 4972   5.742   2.029   4.326  0.0760  0.3990 -0.1201
   52CHL1  H15A 4973   5.815   1.946   4.314 -1.2609 -0.5913 -1.9256
   52CHL1  H15B 4974   5.787   2.110   4.265 -0.9597 -0.4428 -2.0799
   52CHL1   C16 4975   5.712   2.075   4.469  0.4448 -0.0438  0.4174
   52CHL1  H16A 4976   5.789   2.016   4.522 -0.3698 -0.1593  1.5057
   52CHL1  H16B 4977   5.724   2.184   4.482 -2.6728  0.2552  1.6540
   52CHL1   C17 4978   5.565   2.026   4.501 -0.1190  0.1413  0.6618
   52CHL1   H17 4979   5.497   2.112   4.483  0.4555  0.1796 -1.7358
   52CHL1   C13 4980   5.527   1.927   4.384 -1.2402  0.1599 -0.0034
   52CHL1   C18 4981   5.585   1.787   4.435 -0.1927 -0.1879 -0.0772
   52CHL1  H18A 4982   5.587   1.714   4.351  0.3205 -0.0829 -0.1626
   52CHL1  H18B 4983   5.683   1.799   4.486 -1.1580  0.4564  1.7199
   52CHL1  H18C 4984   5.519   1.745   4.513  0.5013 -1.7686 -0.3092
   52CHL1   C12 4985   5.377   1.912   4.343 -0.6590 -0.1048 -0.6808
   52CHL1  H12A 4986   5.311   1.864   4.418 -1.1887  1.1612 -0.3031
   52CHL1  H12B 4987   5.323   2.009   4.335  0.7538  0.5621 -3.0023
   52CHL1   C11 4988   5.362   1.829   4.215  0.2205 -0.3929  0.1713
   52CHL1  H11A 4989   5.395   1.723   4.225  1.0966 -0.1088  0.3845
   52CHL1  H11B 4990   5.259   1.836   4.175  0.3264  0.2903 -0.0081
   52CHL1    C9 4991   5.454   1.885   4.100 -0.4132  0.4888  0.4992
   52CHL1    H9 4992   5.415   1.984   4.069 -0.0003  0.1405 -1.2521
   52CHL1   C10 4993   5.438   1.811   3.964 -0.4695  1.6573 -0.5688
   52CHL1   C19 4994   5.455   1.663   3.991 -0.0100  0.4840  0.5469
   52CHL1  H19A 4995   5.535   1.638   4.064 -1.0612  1.2457  1.9959
   52CHL1  H19B 4996   5.360   1.624   4.034 -0.4078  0.9836  0.1268
   52CHL1  H19C 4997   5.470   1.601   3.900  2.0100  0.3613  0.9004
   52CHL1    C1 4998   5.302   1.844   3.889  0.0888 -0.2692 -0.4261
   52CHL1   H1A 4999   5.214   1.838   3.957 -0.8197 -1.5058 -1.6473
   52CHL1   H1B 5000   5.307   1.951   3.859  0.2384  0.6311  2.4941
   52CHL1    C2 5001   5.280   1.762   3.761 -0.4954 -0.5077  0.5850
   52CHL1   H2A 5002   5.173   1.770   3.729 -0.4747 -0.6465  0.4790
   52CHL1   H2B 5003   5.297   1.655   3.783  1.1686 -0.4363 -0.1904
   52CHL1   C20 5004   5.543   1.990   4.652  0.2577 -0.4219 -0.5345
   52CHL1   H20 5005   5.598   1.897   4.677  1.1217  0.3950  0.6865
   52CHL1   C21 5006   5.391   1.971   4.659  0.2406 -0.0338  0.1463
   52CHL1  H21A 5007   5.350   1.963   4.762 -0.8500  1.0479 -0.1789
   52CHL1  H21B 5008   5.361   1.877   4.607 -0.5335  1.6879 -2.7085
   52CHL1  H21C 5009   5.333   2.056   4.618 -0.0823  0.2754  1.2178
   52CHL1   C22 5010   5.601   2.091   4.750 -0.2005  0.2306  0.0868
   52CHL1  H22A 5011   5.710   2.093   4.728 -0.1027  0.4003  0.5683
   52CHL1  H22B 5012   5.569   2.194   4.724  1.0235  0.9133  1.1436
   52CHL1   C23 5013   5.569   2.056   4.895  0.0245  0.5535 -0.4780
   52CHL1  H23A 5014   5.472   2.099   4.928  0.1441  0.3875  0.1062
   52CHL1  H23B 5015   5.570   1.947   4.918  0.2222  0.8318  0.9320
   52CHL1   C24 5016   5.681   2.114   4.994  0.1477  0.7176 -1.0392
   52CHL1  H24A 5017   5.780   2.097   4.948  0.2718 -1.7204  0.0064
   52CHL1  H24B 5018   5.666   2.224   4.996 -0.1807  0.6630 -0.1188
   52CHL1   C25 5019   5.678   2.074   5.147  0.1260 -0.1496  0.4519
   52CHL1   H25 5020   5.685   1.964   5.159  1.9891 -0.0850  0.3051
   52CHL1   C26 5021   5.805   2.134   5.220  0.6484  0.1269  0.4962
   52CHL1  H26A 5022   5.822   2.096   5.323 -0.2645  0.5211  0.8028
   52CHL1  H26B 5023   5.901   2.111   5.169  0.3676 -1.1159  0.4826
   52CHL1  H26C 5024   5.792   2.244   5.223 -1.7204 -0.0684 -0.5025
   52CHL1   C27 5025   5.548   2.115   5.217  0.6611 -0.2264 -0.9797
   52CHL1  H27A 5026   5.545   2.226   5.220  0.3792 -0.2171 -1.4778
   52CHL1  H27B 5027   5.461   2.083   5.156 -0.8974 -0.1483  1.1033
   52CHL1  H27C 5028   5.543   2.082   5.323  3.6157  0.7692 -0.4404
   53CHL1    C3 5029   5.187   1.299   3.892 -0.6608 -0.1506 -0.1190
   53CHL1    H3 5030   5.272   1.371   3.889 -0.9914  0.3608  1.6917
   53CHL1    O3 5031   5.165   1.237   3.770  0.2912 -0.1276 -0.1627
   53CHL1   H3' 5032   5.163   1.311   3.708 -1.5147 -0.4896 -0.5964
   53CHL1    C4 5033   5.211   1.193   3.999  0.2517  0.3794 -0.3270
   53CHL1   H4A 5034   5.121   1.128   4.003 -0.6063  1.5560  0.0139
   53CHL1   H4B 5035   5.287   1.117   3.969 -1.0166 -2.1735  2.3946
   53CHL1    C5 5036   5.234   1.250   4.142  0.0220 -1.3608 -0.1038
   53CHL1    C6 5037   5.341   1.215   4.214  0.0060  0.0691 -0.0393
   53CHL1    H6 5038   5.405   1.134   4.175 -2.7082 -1.9866 -0.5376
   53CHL1    C7 5039   5.365   1.276   4.349  0.4651 -0.6898  0.1589
   53CHL1   H7A 5040   5.406   1.209   4.427 -1.0813  1.9460  3.4941
   53CHL1   H7B 5041   5.443   1.354   4.344 -1.3482  1.1352 -1.1231
   53CHL1    C8 5042   5.237   1.337   4.411  0.3052 -0.8799 -0.3459
   53CHL1    H8 5043   5.169   1.255   4.442  1.3663 -0.9133  2.0987
   53CHL1   C14 5044   5.277   1.431   4.523 -0.4854 -0.2988 -0.5401
   53CHL1   H14 5045   5.333   1.511   4.470 -0.8014  1.6364  1.8356
   53CHL1   C15 5046   5.359   1.367   4.628  0.3743 -0.1588 -0.6307
   53CHL1  H15A 5047   5.310   1.270   4.651  1.3175 -0.9299 -1.7759
   53CHL1  H15B 5048   5.461   1.328   4.605 -0.3545 -1.0593 -2.5359
   53CHL1   C16 5049   5.361   1.460   4.750  0.5735  0.6422 -0.0121
   53CHL1  H16A 5050   5.335   1.397   4.838 -0.3923  0.8736 -0.1130
   53CHL1  H16B 5051   5.459   1.508   4.766  1.3355 -0.7035 -0.4744
   53CHL1   C17 5052   5.261   1.572   4.714  1.0219  0.2851 -0.5909
   53CHL1   H17 5053   5.312   1.658   4.667 -1.7665  0.6076 -3.3050
   53CHL1   C13 5054   5.175   1.517   4.600  1.0245 -0.2088  0.6802
   53CHL1   C18 5055   5.083   1.415   4.664  0.4788  0.2847 -0.4810
   53CHL1  H18A 5056   5.026   1.350   4.594 -0.5793 -1.5486  1.9156
   53CHL1  H18B 5057   5.133   1.349   4.738 -1.0624 -0.9208 -0.4662
   53CHL1  H18C 5058   5.005   1.466   4.725  1.0149 -0.2103  0.6502
   53CHL1   C12 5059   5.091   1.602   4.498 -0.8788  0.1861 -0.3412
   53CHL1  H12A 5060   5.015   1.674   4.533  0.0198  0.9498  0.0636
   53CHL1  H12B 5061   5.162   1.664   4.440 -0.7856 -0.0117 -0.4431
   53CHL1   C11 5062   5.039   1.509   4.382 -0.7465 -1.2968  0.1525
   53CHL1  H11A 5063   4.961   1.438   4.417 -3.1875  1.9607  1.8471
   53CHL1  H11B 5064   4.985   1.567   4.304 -0.5409 -0.3246  0.7247
   53CHL1    C9 5065   5.155   1.427   4.316  0.0575 -0.3289 -1.0895
   53CHL1    H9 5066   5.228   1.501   4.277  0.1554 -0.4212 -1.0792
   53CHL1   C10 5067   5.124   1.349   4.188 -0.1821 -0.3086 -0.3045
   53CHL1   C19 5068   5.003   1.260   4.218 -0.6636  0.7038 -0.2469
   53CHL1  H19A 5069   4.964   1.207   4.128 -0.5041 -0.7360  0.5028
   53CHL1  H19B 5070   5.028   1.193   4.303  2.1923  2.4232  0.3826
   53CHL1  H19C 5071   4.914   1.318   4.250 -1.0255  1.1513 -1.9541
   53CHL1    C1 5072   5.087   1.447   4.076  0.4488  0.6976  0.2996
   53CHL1   H1A 5073   4.995   1.502   4.105  0.4478  0.6757  0.3384
   53CHL1   H1B 5074   5.168   1.522   4.065 -0.1412  1.1355 -1.4018
   53CHL1    C2 5075   5.070   1.390   3.932 -0.1491  0.0359  0.1189
   53CHL1   H2A 5076   5.057   1.468   3.854 -1.1768 -0.9877 -0.7663
   53CHL1   H2B 5077   4.979   1.326   3.935  1.1388 -1.8976 -0.0662
   53CHL1   C20 5078   5.188   1.626   4.842  0.4460  0.6195 -0.3889
   53CHL1   H20 5079   5.147   1.540   4.900  1.2471  0.4829 -0.0189
   53CHL1   C21 5080   5.075   1.727   4.807 -0.1816 -0.4038  0.2328
   53CHL1  H21A 5081   5.124   1.794   4.733  0.0786 -0.4093  0.3995
   53CHL1  H21B 5082   5.045   1.785   4.897 -0.2318  1.7782 -1.1113
   53CHL1  H21C 5083   4.985   1.679   4.763  0.5452 -1.1607 -0.4699
   53CHL1   C22 5084   5.295   1.695   4.931 -0.5778 -0.0674 -0.4601
   53CHL1  H22A 5085   5.355   1.613   4.976 -1.1151 -0.1102  0.1963
   53CHL1  H22B 5086   5.362   1.763   4.874 -1.8871  3.3121  1.6749
   53CHL1   C23 5087   5.241   1.767   5.059 -0.2141  0.4730 -0.0687
   53CHL1  H23A 5088   5.195   1.862   5.027 -1.6591 -0.0139  0.5043
   53CHL1  H23B 5089   5.154   1.704   5.087  0.8843 -1.6630 -1.1273
   53CHL1   C24 5090   5.353   1.804   5.168 -0.5065  0.6797  0.2361
   53CHL1  H24A 5091   5.426   1.853   5.100  3.3670 -1.9192  2.1371
   53CHL1  H24B 5092   5.318   1.891   5.228 -1.9598 -0.2115  0.7441
   53CHL1   C25 5093   5.425   1.691   5.252 -0.0585 -1.0329  0.3349
   53CHL1   H25 5094   5.456   1.602   5.192  1.2600 -0.1630 -0.3132
   53CHL1   C26 5095   5.549   1.753   5.319 -0.6915 -0.0075  0.0838
   53CHL1  H26A 5096   5.526   1.842   5.381 -0.7792 -0.3715  0.5826
   53CHL1  H26B 5097   5.579   1.682   5.398  0.6507  0.0944 -0.3108
   53CHL1  H26C 5098   5.628   1.757   5.241  0.7077 -1.5682  1.3576
   53CHL1   C27 5099   5.327   1.655   5.364  0.5423  0.3700  0.0244
   53CHL1  H27A 5100   5.228   1.633   5.318  0.9992 -1.2143 -0.2775
   53CHL1  H27B 5101   5.366   1.572   5.427  0.3171 -1.3216 -1.9393
   53CHL1  H27C 5102   5.307   1.734   5.439 -3.7299  1.5646 -2.1042
   54CHL1    C3 5103   6.100   2.174   3.815 -0.3199  0.1733 -0.1774
   54CHL1    H3 5104   6.165   2.105   3.871  0.7776  0.9731 -0.4297
   54CHL1    O3 5105   6.036   2.119   3.700 -0.0058  0.6563  0.7149
   54CHL1   H3' 5106   5.977   2.188   3.670 -0.0901  0.5729  0.6906
   54CHL1    C4 5107   5.999   2.214   3.920 -0.4073 -0.2912  0.0856
   54CHL1   H4A 5108   5.933   2.293   3.878 -0.9241  0.0867  1.5553
   54CHL1   H4B 5109   5.935   2.128   3.947  1.3828 -1.9391 -0.6285
   54CHL1    C5 5110   6.070   2.271   4.038 -0.7682  0.1621 -0.7065
   54CHL1    C6 5111   6.045   2.217   4.162  0.3211  0.3258  0.4850
   54CHL1    H6 5112   5.970   2.137   4.160 -0.7629  1.3224 -1.0264
   54CHL1    C7 5113   6.102   2.277   4.288  0.3050  0.2192 -0.2014
   54CHL1   H7A 5114   6.015   2.292   4.355 -1.5584  2.7487 -2.9035
   54CHL1   H7B 5115   6.187   2.214   4.323  1.2598  0.9198 -1.1949
   54CHL1    C8 5116   6.173   2.407   4.270 -0.4612  0.5161  0.2549
   54CHL1    H8 5117   6.095   2.486   4.258 -0.9700 -0.0381 -0.1702
   54CHL1   C14 5118   6.262   2.438   4.388 -0.3460  0.3395  0.0389
   54CHL1   H14 5119   6.335   2.355   4.395 -0.9662 -0.3778 -1.4193
   54CHL1   C15 5120   6.195   2.437   4.525 -0.3523  0.2545  0.0687
   54CHL1  H15A 5121   6.093   2.480   4.527 -1.5659 -2.2148 -2.2241
   54CHL1  H15B 5122   6.199   2.337   4.574 -1.8689  0.7632  1.3383
   54CHL1   C16 5123   6.291   2.517   4.609 -0.5847 -0.2445  0.3866
   54CHL1  H16A 5124   6.238   2.608   4.646 -0.5024  0.4986 -1.2596
   54CHL1  H16B 5125   6.332   2.453   4.690 -0.3851  0.1832  0.6318
   54CHL1   C17 5126   6.407   2.562   4.516  0.1545 -0.5975 -0.5056
   54CHL1   H17 5127   6.476   2.476   4.526 -1.1818 -1.8809 -1.8727
   54CHL1   C13 5128   6.345   2.563   4.372  0.5353  0.2038  0.2516
   54CHL1   C18 5129   6.247   2.677   4.345 -0.2357  0.1229 -0.4236
   54CHL1  H18A 5130   6.307   2.756   4.294 -0.8090  0.8120 -0.0594
   54CHL1  H18B 5131   6.181   2.657   4.257  0.8155  0.8074 -1.4020
   54CHL1  H18C 5132   6.184   2.705   4.432 -0.4952 -0.6725 -0.3432
   54CHL1   C12 5133   6.447   2.532   4.262  0.2742  0.1719 -0.8576
   54CHL1  H12A 5134   6.518   2.613   4.238  0.5087  0.7451  1.5441
   54CHL1  H12B 5135   6.505   2.443   4.293 -2.3858 -2.0471 -1.7613
   54CHL1   C11 5136   6.369   2.507   4.128  0.2535 -0.0487 -0.3927
   54CHL1  H11A 5137   6.328   2.607   4.104 -0.2872  0.3263  1.8726
   54CHL1  H11B 5138   6.437   2.471   4.047 -1.1148 -0.5592 -1.3489
   54CHL1    C9 5139   6.268   2.392   4.148  0.0875 -0.3083 -0.3220
   54CHL1    H9 5140   6.336   2.306   4.163  0.8828  0.4175  0.3052
   54CHL1   C10 5141   6.178   2.377   4.016 -0.5492  0.1015 -0.4267
   54CHL1   C19 5142   6.098   2.498   3.986 -0.2540 -0.4865  0.2569
   54CHL1  H19A 5143   6.046   2.541   4.074 -0.6052 -0.2896 -0.0416
   54CHL1  H19B 5144   6.158   2.588   3.959  0.6093 -1.3479 -0.8161
   54CHL1  H19C 5145   6.025   2.492   3.902 -0.4498  0.2011  0.3688
   54CHL1    C1 5146   6.266   2.340   3.882  0.1661 -0.1341 -0.2122
   54CHL1   H1A 5147   6.332   2.425   3.852 -0.5769  0.9931  1.1924
   54CHL1   H1B 5148   6.334   2.261   3.919 -0.9586 -0.8000  0.5059
   54CHL1    C2 5149   6.187   2.286   3.768 -0.2906 -0.8685 -0.2686
   54CHL1   H2A 5150   6.243   2.235   3.687  0.6147  2.9858 -2.2968
   54CHL1   H2B 5151   6.123   2.368   3.730  0.2827 -0.3843 -0.2080
   54CHL1   C20 5152   6.467   2.692   4.563  0.1671  0.3916 -0.2628
   54CHL1   H20 5153   6.401   2.774   4.528 -0.2878 -0.8669 -2.5516
   54CHL1   C21 5154   6.610   2.705   4.494 -0.4230  0.4916 -0.7110
   54CHL1  H21A 5155   6.654   2.804   4.518 -0.0026  0.0490  0.4430
   54CHL1  H21B 5156   6.593   2.698   4.385 -0.0417  0.9020 -0.8006
   54CHL1  H21C 5157   6.678   2.622   4.524 -1.2758 -0.9850 -2.6482
   54CHL1   C22 5158   6.491   2.701   4.717 -0.6050 -0.6305  0.4703
   54CHL1  H22A 5159   6.525   2.805   4.737 -0.0099 -0.6453 -0.3892
   54CHL1  H22B 5160   6.394   2.686   4.769  0.0306 -1.6685  1.3795
   54CHL1   C23 5161   6.599   2.605   4.774  0.4540 -0.3960 -0.7511
   54CHL1  H23A 5162   6.567   2.505   4.738  1.9344 -0.6435 -1.4652
   54CHL1  H23B 5163   6.703   2.612   4.733  1.1581 -2.4566  0.5386
   54CHL1   C24 5164   6.600   2.599   4.925  0.3948 -0.0101 -0.2047
   54CHL1  H24A 5165   6.494   2.597   4.960  0.5904 -0.4600  0.3834
   54CHL1  H24B 5166   6.641   2.498   4.947 -0.6608 -1.0720 -2.7424
   54CHL1   C25 5167   6.686   2.697   5.004 -0.6901 -1.0406 -0.0991
   54CHL1   H25 5168   6.661   2.796   4.961 -1.9707 -1.6329 -0.7779
   54CHL1   C26 5169   6.645   2.701   5.147  0.1919  0.1586  0.0964
   54CHL1  H26A 5170   6.690   2.790   5.195  1.5644 -0.7919  0.6291
   54CHL1  H26B 5171   6.538   2.697   5.180  0.9430  0.2718  2.8088
   54CHL1  H26C 5172   6.690   2.620   5.208 -1.7037 -0.8547  0.2485
   54CHL1   C27 5173   6.837   2.663   4.991  0.1042 -0.8978 -0.5031
   54CHL1  H27A 5174   6.851   2.555   5.013  0.2490 -0.4317  2.0757
   54CHL1  H27B 5175   6.871   2.684   4.888  2.9084 -2.1328  0.0813
   54CHL1  H27C 5176   6.901   2.735   5.046 -0.4615  0.3750 -1.4631
   55CHL1    C3 5177   4.724   4.501   3.969 -1.2558  0.2204  0.3666
   55CHL1    H3 5178   4.787   4.421   4.013  0.9051  2.7861  2.2747
   55CHL1    O3 5179   4.740   4.498   3.827  0.4459  1.2338  0.1453
   55CHL1   H3' 5180   4.668   4.557   3.806 -0.1098  0.4749 -0.1352
   55CHL1    C4 5181   4.575   4.492   4.019  0.2564  0.1911 -0.0143
   55CHL1   H4A 5182   4.512   4.565   3.964 -0.3641 -0.1117  0.2811
   55CHL1   H4B 5183   4.542   4.392   3.984 -1.4724  0.9410 -0.6601
   55CHL1    C5 5184   4.563   4.509   4.171  0.2170 -0.4120 -0.2862
   55CHL1    C6 5185   4.504   4.411   4.242 -0.6037  0.2042 -1.1337
   55CHL1    H6 5186   4.448   4.327   4.197 -1.4271  0.7976 -1.2394
   55CHL1    C7 5187   4.488   4.411   4.394  0.2144 -0.1491  0.2684
   55CHL1   H7A 5188   4.387   4.387   4.431  0.1913 -0.3689  0.0682
   55CHL1   H7B 5189   4.557   4.342   4.448  1.0158  1.5435  1.4796
   55CHL1    C8 5190   4.510   4.557   4.450 -0.7891  0.6065 -0.6680
   55CHL1    H8 5191   4.428   4.620   4.409 -1.3130 -0.7903 -1.8634
   55CHL1   C14 5192   4.513   4.562   4.600  0.3313  0.0043 -0.6555
   55CHL1   H14 5193   4.603   4.500   4.622  0.8647  0.7026 -0.8421
   55CHL1   C15 5194   4.395   4.505   4.676  1.0037 -0.0468  0.5444
   55CHL1  H15A 5195   4.298   4.545   4.639  1.1411  0.5817  0.8423
   55CHL1  H15B 5196   4.401   4.395   4.673 -2.7327 -0.4227  1.9642
   55CHL1   C16 5197   4.415   4.560   4.817  0.2210  1.2580 -0.4193
   55CHL1  H16A 5198   4.316   4.595   4.853  0.1350  1.0283 -0.4285
   55CHL1  H16B 5199   4.447   4.475   4.881 -1.0073 -0.5678 -2.0952
   55CHL1   C17 5200   4.529   4.663   4.815 -0.3283 -0.3590  0.3805
   55CHL1   H17 5201   4.627   4.613   4.837  0.3900  0.6869 -0.3853
   55CHL1   C13 5202   4.536   4.703   4.667 -0.4732  0.2848 -0.0595
   55CHL1   C18 5203   4.423   4.800   4.624  0.0437  0.0833  0.2641
   55CHL1  H18A 5204   4.326   4.791   4.676 -0.6841 -1.1799 -1.2317
   55CHL1  H18B 5205   4.461   4.903   4.642  0.3061  0.5631 -2.5634
   55CHL1  H18C 5206   4.399   4.799   4.516  1.7870 -0.5172 -0.1599
   55CHL1   C12 5207   4.680   4.746   4.623  0.0741 -0.4864  0.4047
   55CHL1  H12A 5208   4.700   4.848   4.662  0.9913 -0.3135 -0.4808
   55CHL1  H12B 5209   4.753   4.673   4.665 -1.8216 -2.3212  0.6921
   55CHL1   C11 5210   4.684   4.749   4.465  0.5150  0.4839  0.7159
   55CHL1  H11A 5211   4.608   4.824   4.434 -1.6978 -1.0655  2.1029
   55CHL1  H11B 5212   4.781   4.780   4.420 -0.8641  2.1412 -1.2803
   55CHL1    C9 5213   4.639   4.620   4.391  0.0166 -0.0823 -0.2844
   55CHL1    H9 5214   4.718   4.550   4.425 -2.1621 -1.0190  3.5214
   55CHL1   C10 5215   4.635   4.632   4.236 -0.2598  0.7308  0.4053
   55CHL1   C19 5216   4.549   4.759   4.194 -0.2132  1.0205  0.1066
   55CHL1  H19A 5217   4.447   4.758   4.239 -1.0821 -1.0789 -1.7331
   55CHL1  H19B 5218   4.607   4.850   4.222  1.3657 -0.2020  0.9242
   55CHL1  H19C 5219   4.529   4.758   4.084 -1.8508  0.5259  0.3786
   55CHL1    C1 5220   4.780   4.635   4.178  0.0616 -1.1234 -0.2499
   55CHL1   H1A 5221   4.829   4.729   4.213  1.3786 -1.8331 -0.1175
   55CHL1   H1B 5222   4.847   4.556   4.218  0.5882  1.2506  4.1297
   55CHL1    C2 5223   4.788   4.632   4.022  1.0472  0.0989  0.1159
   55CHL1   H2A 5224   4.893   4.630   3.986  1.2853 -0.5504  0.8248
   55CHL1   H2B 5225   4.736   4.722   3.983 -0.5413 -1.0844 -0.6464
   55CHL1   C20 5226   4.519   4.778   4.912  0.2490  0.4697 -0.4214
   55CHL1   H20 5227   4.484   4.872   4.864 -0.5576 -1.1520 -3.2055
   55CHL1   C21 5228   4.663   4.810   4.960 -0.4118  0.0475  0.1438
   55CHL1  H21A 5229   4.732   4.823   4.874  1.3782  2.3273  1.7780
   55CHL1  H21B 5230   4.709   4.718   5.002  1.6824  1.2466  0.6657
   55CHL1  H21C 5231   4.666   4.901   5.025  1.0392 -0.1185  0.3537
   55CHL1   C22 5232   4.424   4.756   5.033  0.0860  0.0075  0.6609
   55CHL1  H22A 5233   4.317   4.754   5.000  0.0213 -1.0269  0.8752
   55CHL1  H22B 5234   4.456   4.657   5.073  0.0285  0.1482  1.0571
   55CHL1   C23 5235   4.437   4.864   5.140  0.1214 -0.6114  0.3032
   55CHL1  H23A 5236   4.531   4.843   5.196 -0.3289 -1.5662  0.7341
   55CHL1  H23B 5237   4.440   4.966   5.097  1.3559  0.5656  2.9528
   55CHL1   C24 5238   4.321   4.860   5.243  0.6300  0.2998  0.3288
   55CHL1  H24A 5239   4.224   4.884   5.195  0.9930 -0.2289 -0.7136
   55CHL1  H24B 5240   4.321   4.755   5.281  2.4418  0.6081  1.2751
   55CHL1   C25 5241   4.351   4.938   5.362  0.6171  0.0783 -0.8060
   55CHL1   H25 5242   4.394   5.037   5.337 -0.0814  0.0208 -2.3207
   55CHL1   C26 5243   4.219   4.974   5.438 -0.6245 -0.3041  0.0374
   55CHL1  H26A 5244   4.249   5.027   5.531  0.4399  0.6542 -0.8150
   55CHL1  H26B 5245   4.168   5.060   5.388 -0.5919  0.9922  2.1133
   55CHL1  H26C 5246   4.153   4.886   5.456 -0.8667 -0.2560 -0.5754
   55CHL1   C27 5247   4.446   4.871   5.459  0.1422  0.7665 -0.5229
   55CHL1  H27A 5248   4.422   4.764   5.480  0.0228  1.3143  2.5577
   55CHL1  H27B 5249   4.553   4.870   5.429  0.3807 -1.1408  0.2100
   55CHL1  H27C 5250   4.441   4.929   5.553  0.4818  1.1461 -0.7352
   56CHL1    C3 5251   2.084   5.076   3.547  0.0407 -0.2141  0.5596
   56CHL1    H3 5252   2.133   4.982   3.580  1.9465  0.6105  0.2042
   56CHL1    O3 5253   2.096   5.079   3.411  0.6212  0.0696 -0.0598
   56CHL1   H3' 5254   2.080   4.990   3.377  1.4305  0.9432 -3.0400
   56CHL1    C4 5255   1.931   5.072   3.579 -0.5742  0.1355 -0.6630
   56CHL1   H4A 5256   1.886   5.159   3.527 -1.2596  0.3895  0.3425
   56CHL1   H4B 5257   1.885   4.982   3.532  0.6059 -0.3584 -0.9229
   56CHL1    C5 5258   1.890   5.083   3.725 -0.3205 -0.4023  0.1090
   56CHL1    C6 5259   1.813   4.993   3.788 -0.3181 -0.3367 -0.8390
   56CHL1    H6 5260   1.780   4.904   3.732  0.2761 -2.9952  2.6721
   56CHL1    C7 5261   1.798   4.997   3.942  0.5878 -0.0534 -0.6336
   56CHL1   H7A 5262   1.693   4.968   3.962  1.4673 -2.4410  1.0127
   56CHL1   H7B 5263   1.869   4.922   3.984  1.7310  1.0761 -0.4981
   56CHL1    C8 5264   1.821   5.136   4.006 -0.3861 -0.0275  0.1546
   56CHL1    H8 5265   1.732   5.201   3.992 -0.8484 -0.0909  2.4030
   56CHL1   C14 5266   1.839   5.119   4.154  0.0473 -0.0622 -0.4453
   56CHL1   H14 5267   1.932   5.060   4.171  0.1519  0.3045  0.2896
   56CHL1   C15 5268   1.728   5.047   4.234  0.1489  0.5327  0.1785
   56CHL1  H15A 5269   1.626   5.084   4.214 -0.0981  0.8745  1.9164
   56CHL1  H15B 5270   1.731   4.938   4.211  1.6580  0.8707 -1.5090
   56CHL1   C16 5271   1.762   5.074   4.382  0.0766 -0.0580  0.8126
   56CHL1  H16A 5272   1.680   5.136   4.424 -1.3307 -0.0426 -1.7711
   56CHL1  H16B 5273   1.778   4.980   4.439 -0.0298  1.6893  3.9460
   56CHL1   C17 5274   1.881   5.177   4.377 -0.0092  0.4377 -0.3914
   56CHL1   H17 5275   1.978   5.123   4.381 -1.4162 -2.1680  0.3104
   56CHL1   C13 5276   1.869   5.240   4.237 -0.5998 -0.1956 -0.3605
   56CHL1   C18 5277   1.747   5.340   4.233  0.0029  0.7820 -0.0123
   56CHL1  H18A 5278   1.767   5.430   4.293  0.0943  0.6227  0.1954
   56CHL1  H18B 5279   1.733   5.378   4.129  1.5643 -0.0874 -0.5709
   56CHL1  H18C 5280   1.654   5.292   4.271 -1.1070  3.2277  0.5298
   56CHL1   C12 5281   1.995   5.307   4.169 -0.1698  0.5025 -0.2863
   56CHL1  H12A 5282   2.039   5.395   4.221  1.1232 -1.6509  2.5541
   56CHL1  H12B 5283   2.073   5.229   4.182 -1.1584 -0.5265 -0.2818
   56CHL1   C11 5284   1.989   5.334   4.015 -0.3110  0.2048 -0.1203
   56CHL1  H11A 5285   1.927   5.426   4.012 -0.4269  0.4051  3.8560
   56CHL1  H11B 5286   2.095   5.361   3.996  0.4580 -1.1240  1.9863
   56CHL1    C9 5287   1.943   5.206   3.946 -0.1974 -0.1047 -0.1568
   56CHL1    H9 5288   2.028   5.138   3.965  0.1397  0.7368  1.5718
   56CHL1   C10 5289   1.955   5.209   3.795  0.1267 -0.0887 -0.9172
   56CHL1   C19 5290   1.884   5.342   3.746 -0.3052 -0.1844 -0.1370
   56CHL1  H19A 5291   1.927   5.433   3.793 -1.4932 -0.1586  0.9493
   56CHL1  H19B 5292   1.917   5.352   3.641 -1.3672 -1.1412 -0.5762
   56CHL1  H19C 5293   1.774   5.341   3.764 -0.0468  2.2996  2.3039
   56CHL1    C1 5294   2.110   5.209   3.756  0.0122 -0.2408 -0.1078
   56CHL1   H1A 5295   2.155   5.302   3.796 -0.0877  0.2648 -1.1261
   56CHL1   H1B 5296   2.159   5.118   3.795  0.0160  0.3547  1.3203
   56CHL1    C2 5297   2.150   5.200   3.609 -0.6525 -0.0606  0.9746
   56CHL1   H2A 5298   2.260   5.183   3.610 -0.2051  1.4350 -3.0291
   56CHL1   H2B 5299   2.126   5.288   3.544  1.7057  0.5787  0.8580
   56CHL1   C20 5300   1.870   5.272   4.498  0.8749  0.5120  0.3342
   56CHL1   H20 5301   1.776   5.327   4.474 -0.1088 -1.4739 -0.5723
   56CHL1   C21 5302   1.986   5.372   4.506 -0.1481  0.1683 -0.6981
   56CHL1  H21A 5303   1.981   5.449   4.427 -2.8977  1.4659  0.6259
   56CHL1  H21B 5304   2.085   5.322   4.512  0.8565  2.1341 -0.0462
   56CHL1  H21C 5305   1.977   5.423   4.604 -1.3377 -0.7737 -0.2888
   56CHL1   C22 5306   1.843   5.188   4.627  0.0146 -0.2499  0.0418
   56CHL1  H22A 5307   1.756   5.121   4.606  0.3196 -0.9311  0.9019
   56CHL1  H22B 5308   1.925   5.121   4.658 -1.5083 -3.0176 -1.4614
   56CHL1   C23 5309   1.792   5.280   4.739 -0.8263 -0.1771  0.1486
   56CHL1  H23A 5310   1.861   5.360   4.773  0.2876 -1.2643  0.5703
   56CHL1  H23B 5311   1.692   5.322   4.718 -2.0556 -2.8633  0.2171
   56CHL1   C24 5312   1.759   5.191   4.859  0.0644  1.0715 -0.2882
   56CHL1  H24A 5313   1.702   5.102   4.825  2.5921 -0.3655 -0.9859
   56CHL1  H24B 5314   1.846   5.139   4.902 -1.4858 -0.0441  1.6856
   56CHL1   C25 5315   1.696   5.265   4.985 -0.2875 -0.1028 -0.3260
   56CHL1   H25 5316   1.769   5.347   5.003 -0.5351 -0.1100  0.7908
   56CHL1   C26 5317   1.564   5.337   4.955  0.1139 -0.0355 -0.3139
   56CHL1  H26A 5318   1.486   5.259   4.947  0.9835 -0.9843  0.2445
   56CHL1  H26B 5319   1.538   5.392   5.048 -0.2778  0.3450 -0.6462
   56CHL1  H26C 5320   1.570   5.412   4.873 -1.0726  3.0304  2.2032
   56CHL1   C27 5321   1.697   5.167   5.103 -0.8767  0.1974  0.1223
   56CHL1  H27A 5322   1.627   5.086   5.071 -1.9749  0.8704  0.7555
   56CHL1  H27B 5323   1.798   5.131   5.129 -0.8005 -2.0983 -2.7465
   56CHL1  H27C 5324   1.653   5.214   5.193  3.3896  1.6839  1.6656
   57CHL1    C3 5325   2.075   3.588   3.725 -0.3413  0.0279  0.1008
   57CHL1    H3 5326   2.005   3.507   3.755 -0.4706 -1.2982 -3.3508
   57CHL1    O3 5327   2.073   3.592   3.584  0.1542  0.5004 -0.3412
   57CHL1   H3' 5328   2.144   3.653   3.564 -0.7366  1.5082 -0.5021
   57CHL1    C4 5329   2.038   3.728   3.785  0.5626  0.7218 -0.0361
   57CHL1   H4A 5330   2.124   3.788   3.748  0.8528 -0.4546 -1.3700
   57CHL1   H4B 5331   1.947   3.772   3.739  1.0488  1.4142 -0.3688
   57CHL1    C5 5332   2.032   3.736   3.939 -0.6865 -0.0915 -0.1175
   57CHL1    C6 5333   1.919   3.771   3.992  0.0248  0.0618 -0.2466
   57CHL1    H6 5334   1.840   3.805   3.924  0.7823  2.0873 -0.1702
   57CHL1    C7 5335   1.892   3.783   4.136  0.5022  0.2845 -0.2196
   57CHL1   H7A 5336   1.844   3.881   4.160 -0.8477 -0.3001 -0.4176
   57CHL1   H7B 5337   1.813   3.711   4.168  1.8552 -0.7796  0.8336
   57CHL1    C8 5338   2.020   3.753   4.225  0.1826  0.3709 -0.1701
   57CHL1    H8 5339   2.076   3.847   4.244 -1.2688  1.0012  1.1836
   57CHL1   C14 5340   1.984   3.713   4.365  0.0509 -0.1710 -0.2037
   57CHL1   H14 5341   1.923   3.621   4.366 -0.1813 -0.0467  2.5391
   57CHL1   C15 5342   1.896   3.812   4.444 -0.4549  0.3753 -0.5313
   57CHL1  H15A 5343   1.937   3.912   4.415 -1.0003  0.5384 -0.7678
   57CHL1  H15B 5344   1.789   3.797   4.417 -0.7357 -1.8867  1.5308
   57CHL1   C16 5345   1.926   3.774   4.595  0.3263 -0.3879 -0.5402
   57CHL1  H16A 5346   1.954   3.863   4.655  1.7719  0.5528 -2.5142
   57CHL1  H16B 5347   1.834   3.732   4.641  0.8663 -2.0807 -0.9463
   57CHL1   C17 5348   2.039   3.665   4.594 -0.8197 -0.0528 -0.5021
   57CHL1   H17 5349   1.988   3.566   4.591 -1.2329  0.1719 -2.2176
   57CHL1   C13 5350   2.106   3.686   4.457 -0.1453  0.2152  0.0091
   57CHL1   C18 5351   2.192   3.820   4.467  0.2357 -0.4619 -0.3626
   57CHL1  H18A 5352   2.282   3.827   4.532 -0.9482  0.4575  1.2402
   57CHL1  H18B 5353   2.231   3.852   4.368 -2.6297 -1.5999 -1.9813
   57CHL1  H18C 5354   2.127   3.899   4.509 -0.8456 -2.2267  1.4388
   57CHL1   C12 5355   2.190   3.574   4.397  0.5086  0.2516  0.0024
   57CHL1  H12A 5356   2.279   3.560   4.461 -1.0661  1.5305  2.6391
   57CHL1  H12B 5357   2.129   3.481   4.398  1.8258 -0.6397  0.5458
   57CHL1   C11 5358   2.231   3.609   4.254  0.2832  0.1827  0.8154
   57CHL1  H11A 5359   2.300   3.696   4.262  0.9349 -0.4194  2.1651
   57CHL1  H11B 5360   2.297   3.537   4.200  2.5132 -0.3454  3.9651
   57CHL1    C9 5361   2.109   3.648   4.161 -0.3241  0.1916  0.5869
   57CHL1    H9 5362   2.050   3.554   4.152 -1.1247  0.7208  0.1709
   57CHL1   C10 5363   2.146   3.672   4.014 -0.0944 -0.3260  0.8038
   57CHL1   C19 5364   2.253   3.786   4.019  0.7257  0.1970  0.3461
   57CHL1  H19A 5365   2.262   3.845   3.925  0.4354 -0.3161 -0.0090
   57CHL1  H19B 5366   2.226   3.859   4.098 -1.2620 -2.1424  1.9726
   57CHL1  H19C 5367   2.347   3.737   4.053 -0.1418 -1.1305  0.8964
   57CHL1    C1 5368   2.194   3.542   3.939 -0.6388  0.8959 -0.8299
   57CHL1   H1A 5369   2.288   3.501   3.982 -0.1866  1.2946 -1.4177
   57CHL1   H1B 5370   2.121   3.459   3.942  0.6399 -0.3132 -1.5401
   57CHL1    C2 5371   2.218   3.541   3.786  0.7654  0.0341  0.6524
   57CHL1   H2A 5372   2.240   3.442   3.741 -0.2060 -1.2028  2.7443
   57CHL1   H2B 5373   2.291   3.618   3.754 -0.8535  0.9120 -1.1048
   57CHL1   C20 5374   2.135   3.668   4.723  0.1542 -0.4412  0.2764
   57CHL1   H20 5375   2.228   3.726   4.704 -1.4402  2.7699  1.4260
   57CHL1   C21 5376   2.179   3.520   4.751  0.9401  0.0066 -0.0771
   57CHL1  H21A 5377   2.249   3.521   4.837  1.6437  2.2959 -0.5949
   57CHL1  H21B 5378   2.233   3.485   4.660  0.4934  2.2895 -1.3219
   57CHL1  H21C 5379   2.098   3.459   4.797  1.1648 -0.9213 -0.8776
   57CHL1   C22 5380   2.082   3.737   4.855  0.0099 -0.3545 -0.5505
   57CHL1  H22A 5381   2.174   3.742   4.917 -0.5206  0.0821  0.2045
   57CHL1  H22B 5382   2.054   3.842   4.833  3.0128  0.7183  0.2208
   57CHL1   C23 5383   1.975   3.663   4.928 -0.7590  0.0167 -0.3273
   57CHL1  H23A 5384   1.912   3.606   4.856 -1.1230 -0.2954  0.2278
   57CHL1  H23B 5385   2.012   3.588   5.001  0.7943  1.1740  0.1064
   57CHL1   C24 5386   1.888   3.757   5.014 -0.0643 -0.2410 -0.4315
   57CHL1  H24A 5387   1.829   3.821   4.945 -1.3970  1.9470  2.5443
   57CHL1  H24B 5388   1.817   3.703   5.079  0.1585  1.5861  1.4111
   57CHL1   C25 5389   1.955   3.860   5.105  0.7320 -0.7891 -0.4806
   57CHL1   H25 5390   2.024   3.924   5.046  0.5606  1.0522  1.2444
   57CHL1   C26 5391   1.843   3.948   5.173  0.4976  0.0106  0.5994
   57CHL1  H26A 5392   1.881   4.006   5.259  0.3088 -1.0203  1.3902
   57CHL1  H26B 5393   1.814   4.023   5.096  0.3142  1.6824  2.2460
   57CHL1  H26C 5394   1.764   3.885   5.218  0.6003  0.1675  1.0004
   57CHL1   C27 5395   2.047   3.798   5.216  0.7665  0.3354  0.4967
   57CHL1  H27A 5396   1.980   3.740   5.282 -2.0801  0.9353 -1.6221
   57CHL1  H27B 5397   2.129   3.738   5.172  1.8404  1.0592  1.4630
   57CHL1  H27C 5398   2.091   3.875   5.283  0.0640 -2.5809  4.6416
   58CHL1    C3 5399   0.324   5.882   3.425  0.4392  0.0245 -0.1470
   58CHL1    H3 5400   0.409   5.812   3.438  0.1289 -0.5825 -1.2684
   58CHL1    O3 5401   0.302   5.920   3.289 -0.0401  0.0973 -0.5359
   58CHL1   H3' 5402   0.219   5.968   3.283 -0.1780 -0.1651 -0.7591
   58CHL1    C4 5403   0.198   5.812   3.469 -0.1816 -0.6495  0.4332
   58CHL1   H4A 5404   0.106   5.860   3.427  0.8445 -0.4661 -1.7356
   58CHL1   H4B 5405   0.202   5.720   3.407  1.5083  0.5180 -1.2992
   58CHL1    C5 5406   0.193   5.765   3.611 -0.1909  0.7709 -0.2476
   58CHL1    C6 5407   0.169   5.635   3.644 -0.0546 -0.4270 -0.3413
   58CHL1    H6 5408   0.142   5.558   3.571  0.0641 -1.6998  0.9033
   58CHL1    C7 5409   0.172   5.586   3.788  0.1410  0.7456  0.2977
   58CHL1   H7A 5410   0.078   5.530   3.806 -0.1908  2.1412  3.7174
   58CHL1   H7B 5411   0.246   5.506   3.808 -2.6435 -1.8286  0.9380
   58CHL1    C8 5412   0.176   5.702   3.892 -0.1079 -0.1286  0.6727
   58CHL1    H8 5413   0.072   5.737   3.911  0.0946  1.0498 -0.2389
   58CHL1   C14 5414   0.230   5.653   4.023  0.3018  0.9083  0.5092
   58CHL1   H14 5415   0.336   5.637   3.992  0.7073  1.3816  1.6153
   58CHL1   C15 5416   0.180   5.516   4.085 -0.6944 -0.5323  0.5332
   58CHL1  H15A 5417   0.069   5.527   4.076 -0.5035 -0.0348 -1.7752
   58CHL1  H15B 5418   0.215   5.431   4.023 -2.9378  0.0976 -1.7911
   58CHL1   C16 5419   0.230   5.518   4.235  0.3807 -0.0675  0.3428
   58CHL1  H16A 5420   0.140   5.491   4.296 -0.8948  2.0162 -0.5241
   58CHL1  H16B 5421   0.307   5.443   4.262  0.0747 -0.3156  0.5390
   58CHL1   C17 5422   0.276   5.663   4.252 -0.5594 -0.1313 -0.5332
   58CHL1   H17 5423   0.383   5.658   4.223 -0.4967 -0.4864 -0.2570
   58CHL1   C13 5424   0.230   5.750   4.137 -0.0729 -0.2851 -0.2964
   58CHL1   C18 5425   0.086   5.798   4.169 -0.2307  0.7062  0.2218
   58CHL1  H18A 5426   0.083   5.853   4.266  2.0685  1.6460 -0.1873
   58CHL1  H18B 5427   0.054   5.864   4.086  0.9793  0.5760 -0.3704
   58CHL1  H18C 5428   0.016   5.712   4.181  0.7256 -0.3937 -1.6486
   58CHL1   C12 5429   0.328   5.860   4.092 -0.1986  0.1584 -0.6408
   58CHL1  H12A 5430   0.332   5.941   4.168  0.7901 -0.7987  0.3486
   58CHL1  H12B 5431   0.430   5.818   4.089 -0.3905 -0.5198  1.2708
   58CHL1   C11 5432   0.292   5.934   3.962 -0.0547 -0.3679 -0.1671
   58CHL1  H11A 5433   0.201   5.992   3.991  0.6074  1.0567 -0.8708
   58CHL1  H11B 5434   0.370   6.000   3.921  1.0489 -1.6036 -0.1305
   58CHL1    C9 5435   0.266   5.820   3.851  0.3661  0.1308 -0.1397
   58CHL1    H9 5436   0.369   5.778   3.843  0.1254 -0.4740 -0.1067
   58CHL1   C10 5437   0.222   5.881   3.713 -0.0552  0.5318  0.5570
   58CHL1   C19 5438   0.084   5.957   3.729 -0.1444  0.1511  0.5597
   58CHL1  H19A 5439   0.092   6.039   3.803 -1.6452 -0.0898  1.0173
   58CHL1  H19B 5440   0.061   6.000   3.629  2.7768  2.9211  0.9033
   58CHL1  H19C 5441  -0.002   5.889   3.750 -2.0950  2.1875 -0.3649
   58CHL1    C1 5442   0.348   5.965   3.667 -0.0711  0.0075  0.8779
   58CHL1   H1A 5443   0.355   6.068   3.708  1.3458  0.5222 -0.5463
   58CHL1   H1B 5444   0.443   5.908   3.675  0.0058  0.0042  0.0124
   58CHL1    C2 5445   0.338   6.004   3.515  0.1074  0.0226 -0.3465
   58CHL1   H2A 5446   0.433   6.053   3.484 -0.3422  1.0749 -0.1131
   58CHL1   H2B 5447   0.251   6.073   3.500  1.1585  1.7558  1.0722
   58CHL1   C20 5448   0.276   5.719   4.393  1.1500 -0.5953 -0.1013
   58CHL1   H20 5449   0.281   5.830   4.382  0.3105 -0.4462  0.8861
   58CHL1   C21 5450   0.414   5.698   4.459 -0.0519 -0.7175 -0.2129
   58CHL1  H21A 5451   0.478   5.776   4.413 -0.3266 -0.5085 -0.2417
   58CHL1  H21B 5452   0.454   5.595   4.448  0.4960 -0.4912 -0.3696
   58CHL1  H21C 5453   0.411   5.724   4.567  1.6406 -0.9344 -0.0849
   58CHL1   C22 5454   0.150   5.693   4.486  0.2891 -0.3708  0.5440
   58CHL1  H22A 5455   0.058   5.694   4.423 -0.0807  0.2685  1.0819
   58CHL1  H22B 5456   0.155   5.589   4.525  0.5507 -0.1578  1.0876
   58CHL1   C23 5457   0.147   5.789   4.602  0.2918  0.2672 -0.4573
   58CHL1  H23A 5458   0.239   5.773   4.663  1.1511  1.6499 -1.3380
   58CHL1  H23B 5459   0.143   5.896   4.570  0.1847 -0.2224 -2.1911
   58CHL1   C24 5460   0.014   5.774   4.685 -0.8233 -0.7057 -0.4394
   58CHL1  H24A 5461  -0.063   5.807   4.611 -0.9106  0.0213 -0.0361
   58CHL1  H24B 5462   0.000   5.670   4.722 -0.4091 -0.7884 -0.5159
   58CHL1   C25 5463  -0.001   5.867   4.806  0.1511 -0.9169 -0.1583
   58CHL1   H25 5464   0.024   5.973   4.785 -3.5225 -0.1584 -1.4540
   58CHL1   C26 5465  -0.147   5.856   4.849 -0.5854 -0.1159  0.5989
   58CHL1  H26A 5466  -0.203   5.901   4.764  0.9040 -0.8822 -0.8585
   58CHL1  H26B 5467  -0.181   5.751   4.856 -0.8484  0.0316  1.6063
   58CHL1  H26C 5468  -0.164   5.912   4.943 -0.1280  0.7555  0.1777
   58CHL1   C27 5469   0.090   5.810   4.919 -0.7975  0.2271 -0.0663
   58CHL1  H27A 5470   0.193   5.797   4.881 -0.7107  0.1464  0.1950
   58CHL1  H27B 5471   0.098   5.886   5.000 -0.9276  0.5441 -0.3439
   58CHL1  H27C 5472   0.055   5.709   4.949  1.5178 -1.7233 -3.2833
   59CHL1    C3 5473   5.238   4.176   3.778 -0.0183  0.0356  0.4967
   59CHL1    H3 5474   5.128   4.170   3.794 -0.4513  0.2456 -2.0185
   59CHL1    O3 5475   5.261   4.121   3.648  0.2586 -0.5036  0.0384
   59CHL1   H3' 5476   5.351   4.152   3.634  0.3539 -0.1066  1.3740
   59CHL1    C4 5477   5.275   4.330   3.781 -0.5411 -0.3245  0.3545
   59CHL1   H4A 5478   5.377   4.356   3.747 -1.1137  0.2974 -0.9401
   59CHL1   H4B 5479   5.209   4.383   3.709 -1.9794 -0.4787  1.4903
   59CHL1    C5 5480   5.254   4.391   3.921  0.0620  0.1943  0.2560
   59CHL1    C6 5481   5.176   4.494   3.931 -0.8300 -0.5592 -0.0101
   59CHL1    H6 5482   5.131   4.543   3.843 -1.4641  1.2777  1.2748
   59CHL1    C7 5483   5.163   4.562   4.061 -0.8247  0.5465 -0.3946
   59CHL1   H7A 5484   5.164   4.673   4.057  1.2101  0.5942  0.4494
   59CHL1   H7B 5485   5.060   4.542   4.098 -1.3479  1.7032 -1.1656
   59CHL1    C8 5486   5.258   4.527   4.182 -0.3218 -0.7512  0.0642
   59CHL1    H8 5487   5.358   4.568   4.158 -0.2678 -1.6984 -1.5034
   59CHL1   C14 5488   5.209   4.574   4.315  0.3272 -0.0657 -0.7159
   59CHL1   H14 5489   5.121   4.507   4.320  0.9511 -0.8285  0.8519
   59CHL1   C15 5490   5.149   4.718   4.327 -0.3456  0.3233 -0.2794
   59CHL1  H15A 5491   5.224   4.800   4.331 -1.7515  1.9244 -3.1460
   59CHL1  H15B 5492   5.083   4.745   4.242  0.7751 -2.5948 -2.2414
   59CHL1   C16 5493   5.103   4.714   4.467  0.3027  0.2066  0.1660
   59CHL1  H16A 5494   5.106   4.814   4.516  0.5009  0.1116  0.3448
   59CHL1  H16B 5495   4.996   4.688   4.451  0.5085  0.4091 -1.8938
   59CHL1   C17 5496   5.188   4.601   4.529  0.2377 -0.1259  0.4644
   59CHL1   H17 5497   5.111   4.520   4.532 -0.0832  0.1126 -0.9119
   59CHL1   C13 5498   5.289   4.552   4.429 -0.2814 -0.1809  0.0057
   59CHL1   C18 5499   5.415   4.639   4.432  0.1409 -0.5816 -0.6045
   59CHL1  H18A 5500   5.493   4.595   4.367  0.2201 -1.8637  0.3210
   59CHL1  H18B 5501   5.405   4.746   4.405 -2.0321 -0.9288 -1.3964
   59CHL1  H18C 5502   5.457   4.628   4.534 -1.4882 -1.4885  0.0136
   59CHL1   C12 5503   5.329   4.393   4.428  0.6739  0.4657  0.2240
   59CHL1  H12A 5504   5.417   4.378   4.494  1.7172 -2.6914 -1.6556
   59CHL1  H12B 5505   5.231   4.346   4.450 -0.0019  1.1330 -1.2066
   59CHL1   C11 5506   5.375   4.330   4.292  1.8494 -0.2758 -0.5740
   59CHL1  H11A 5507   5.474   4.377   4.274  2.1565 -0.1764  1.2130
   59CHL1  H11B 5508   5.390   4.221   4.300  0.8781 -0.4212 -0.6397
   59CHL1    C9 5509   5.284   4.371   4.182  0.1380 -0.5241 -0.0919
   59CHL1    H9 5510   5.184   4.323   4.185 -0.7948  1.3188 -0.4232
   59CHL1   C10 5511   5.330   4.315   4.034  0.1783  0.1238 -0.4051
   59CHL1   C19 5512   5.487   4.337   4.022  0.2227  0.3458 -0.2061
   59CHL1  H19A 5513   5.515   4.435   4.067 -1.3354  0.5578  0.3447
   59CHL1  H19B 5514   5.539   4.251   4.069 -1.0118 -0.4342 -0.2320
   59CHL1  H19C 5515   5.526   4.329   3.918  0.9018 -2.4977  0.1943
   59CHL1    C1 5516   5.307   4.164   4.031  0.4445 -0.0202  0.2473
   59CHL1   H1A 5517   5.359   4.100   4.105  1.2103 -0.5873 -0.7647
   59CHL1   H1B 5518   5.203   4.149   4.066  0.3361 -0.0774 -0.0986
   59CHL1    C2 5519   5.323   4.099   3.888  0.3778  0.4370  0.2182
   59CHL1   H2A 5520   5.290   3.994   3.904 -0.5536  0.6928  0.0180
   59CHL1   H2B 5521   5.430   4.106   3.860  0.2119  0.0812 -0.5092
   59CHL1   C20 5522   5.225   4.641   4.672 -0.6263  0.3429 -0.1773
   59CHL1   H20 5523   5.306   4.717   4.669 -1.1480  0.9312  0.6046
   59CHL1   C21 5524   5.296   4.511   4.734 -0.0084  0.0706 -0.2826
   59CHL1  H21A 5525   5.321   4.542   4.838 -0.3206 -1.7456  0.3752
   59CHL1  H21B 5526   5.389   4.482   4.680 -0.6914 -1.8493 -0.5224
   59CHL1  H21C 5527   5.221   4.430   4.746 -0.5749  0.6348 -0.0191
   59CHL1   C22 5528   5.124   4.702   4.770  0.1520  0.0810  0.1643
   59CHL1  H22A 5529   5.103   4.805   4.734  1.4953  0.4040  0.2370
   59CHL1  H22B 5530   5.031   4.643   4.785 -0.4157  0.0535 -2.8140
   59CHL1   C23 5531   5.165   4.722   4.910  0.2463 -1.0646 -0.3535
   59CHL1  H23A 5532   5.144   4.630   4.968 -2.7078 -1.4032 -1.8039
   59CHL1  H23B 5533   5.273   4.744   4.927  0.4941 -1.7576 -0.9588
   59CHL1   C24 5534   5.075   4.835   4.975  0.0766  0.0256  0.8061
   59CHL1  H24A 5535   5.106   4.931   4.929 -0.6527  0.4726  1.2199
   59CHL1  H24B 5536   4.968   4.834   4.948 -0.4702  0.8152  2.7319
   59CHL1   C25 5537   5.075   4.849   5.130  0.6117  0.2758 -0.1616
   59CHL1   H25 5538   5.182   4.854   5.162  0.4021  0.8674  0.4741
   59CHL1   C26 5539   4.991   4.968   5.178  0.1308  0.0012  0.3496
   59CHL1  H26A 5540   5.021   5.065   5.134 -1.4585  0.0819 -0.6397
   59CHL1  H26B 5541   4.884   4.955   5.150 -0.2697 -0.3282  1.8994
   59CHL1  H26C 5542   5.006   4.968   5.288  1.8691  2.2300  0.1800
   59CHL1   C27 5543   5.017   4.715   5.189  0.6284  0.6012 -0.0409
   59CHL1  H27A 5544   4.921   4.677   5.147  0.3618  0.5943  0.5665
   59CHL1  H27B 5545   5.089   4.633   5.166 -0.2736 -0.4587  0.8481
   59CHL1  H27C 5546   4.995   4.706   5.297  1.3192 -2.6091 -0.0622
   60CHL1    C3 5547   2.406   0.513   3.296 -0.0755 -0.6765 -0.1793
   60CHL1    H3 5548   2.509   0.509   3.336 -0.3032  2.3969  1.0496
   60CHL1    O3 5549   2.415   0.522   3.151 -0.4755  1.1396 -0.2808
   60CHL1   H3' 5550   2.326   0.516   3.114  0.0881 -0.7579 -1.4801
   60CHL1    C4 5551   2.326   0.394   3.339  0.7534  0.7982 -0.1501
   60CHL1   H4A 5552   2.221   0.397   3.302  0.5069  1.4713  0.5801
   60CHL1   H4B 5553   2.361   0.298   3.296  0.6066  0.3053  0.8005
   60CHL1    C5 5554   2.319   0.375   3.491  0.1943  1.0908  0.1959
   60CHL1    C6 5555   2.349   0.264   3.554 -0.4743 -0.7216  0.4965
   60CHL1    H6 5556   2.370   0.179   3.488 -0.6702  1.0074 -1.9407
   60CHL1    C7 5557   2.341   0.240   3.699  0.1751 -0.0868  0.2280
   60CHL1   H7A 5558   2.286   0.148   3.725 -2.5013  1.3349 -0.0920
   60CHL1   H7B 5559   2.446   0.230   3.734  0.4785  0.3991 -0.5054
   60CHL1    C8 5560   2.273   0.358   3.778  0.3348 -0.0884  0.8496
   60CHL1    H8 5561   2.162   0.354   3.771  0.4362 -1.0526 -0.5233
   60CHL1   C14 5562   2.311   0.354   3.920  0.0067 -0.7132 -0.8854
   60CHL1   H14 5563   2.421   0.361   3.936  0.0274  0.9307 -1.5288
   60CHL1   C15 5564   2.268   0.230   4.000  0.6955 -0.1653  0.3774
   60CHL1  H15A 5565   2.161   0.209   3.983  0.8106 -0.0549 -0.4967
   60CHL1  H15B 5566   2.320   0.136   3.972 -1.4395 -0.6056 -2.5341
   60CHL1   C16 5567   2.290   0.274   4.150 -0.1472  0.1524  0.4038
   60CHL1  H16A 5568   2.207   0.234   4.212 -0.0386 -0.0217  0.4363
   60CHL1  H16B 5569   2.388   0.238   4.189  0.9681  1.5186 -0.9897
   60CHL1   C17 5570   2.308   0.428   4.148 -0.4796 -0.7002  0.1442
   60CHL1   H17 5571   2.416   0.451   4.138 -0.9268  0.5170 -2.7585
   60CHL1   C13 5572   2.258   0.476   4.010 -0.5754  0.8407  0.7217
   60CHL1   C18 5573   2.104   0.485   4.015 -0.3666 -0.8283 -0.0715
   60CHL1  H18A 5574   2.050   0.493   3.918  1.0356 -0.1910 -0.8250
   60CHL1  H18B 5575   2.059   0.401   4.072  0.8894 -0.7874  1.0333
   60CHL1  H18C 5576   2.078   0.576   4.073  2.7683 -0.1955  0.5199
   60CHL1   C12 5577   2.331   0.599   3.948 -0.6102 -0.9598  0.2305
   60CHL1  H12A 5578   2.309   0.695   4.000 -1.0044 -1.7456  1.5686
   60CHL1  H12B 5579   2.442   0.590   3.956  0.1970  3.9374 -1.8378
   60CHL1   C11 5580   2.290   0.622   3.806 -0.3472 -0.4549  0.3118
   60CHL1  H11A 5581   2.186   0.660   3.807  0.7485  2.8705  0.0871
   60CHL1  H11B 5582   2.344   0.713   3.772 -1.3389  1.5660  3.7026
   60CHL1    C9 5583   2.316   0.493   3.722 -0.2300  0.0177  0.0082
   60CHL1    H9 5584   2.427   0.486   3.720 -0.2000  0.5532 -0.3506
   60CHL1   C10 5585   2.289   0.508   3.566 -0.0275 -0.4695 -0.8795
   60CHL1   C19 5586   2.139   0.551   3.559 -0.9835  0.1344  0.2081
   60CHL1  H19A 5587   2.080   0.494   3.633 -0.9962  1.3582  1.1697
   60CHL1  H19B 5588   2.129   0.658   3.586 -3.9782 -0.4960  2.0866
   60CHL1  H19C 5589   2.101   0.523   3.458 -2.0853 -0.1306  0.6875
   60CHL1    C1 5590   2.369   0.630   3.513  0.1223 -0.5912 -0.2114
   60CHL1   H1A 5591   2.337   0.730   3.550 -0.2694 -0.3693 -1.1210
   60CHL1   H1B 5592   2.475   0.611   3.538  0.8473  1.8504 -1.1689
   60CHL1    C2 5593   2.352   0.644   3.358 -0.1565 -0.3218 -0.3348
   60CHL1   H2A 5594   2.420   0.727   3.329 -1.1103  0.6854  0.2429
   60CHL1   H2B 5595   2.248   0.671   3.331 -0.7807 -3.3944 -1.4505
   60CHL1   C20 5596   2.250   0.494   4.276  0.2884  0.1040 -0.0490
   60CHL1   H20 5597   2.140   0.478   4.286  0.6176 -1.0453  2.8002
   60CHL1   C21 5598   2.282   0.640   4.297 -0.2025 -0.0958  0.3937
   60CHL1  H21A 5599   2.236   0.700   4.215 -0.0039  0.5358  0.7387
   60CHL1  H21B 5600   2.389   0.668   4.280 -0.7960  1.8685 -0.3968
   60CHL1  H21C 5601   2.243   0.676   4.394  0.6976 -1.2539  1.1999
   60CHL1   C22 5602   2.315   0.425   4.396 -0.9585  0.2253 -1.1865
   60CHL1  H22A 5603   2.320   0.316   4.381  2.6999  0.5137 -3.0507
   60CHL1  H22B 5604   2.422   0.447   4.413 -0.0136 -4.5908  0.5330
   60CHL1   C23 5605   2.243   0.455   4.534 -0.2774  0.3528 -0.5715
   60CHL1  H23A 5606   2.267   0.563   4.545 -0.3003  0.3774 -0.7493
   60CHL1  H23B 5607   2.134   0.450   4.518 -0.2037  0.8195 -1.2831
   60CHL1   C24 5608   2.304   0.368   4.644 -0.2492  0.3978 -0.0906
   60CHL1  H24A 5609   2.266   0.264   4.647  1.0721 -0.0822  2.2127
   60CHL1  H24B 5610   2.415   0.359   4.638 -0.4540 -2.6898 -0.7315
   60CHL1   C25 5611   2.282   0.427   4.789  0.0019 -0.2048 -0.1609
   60CHL1   H25 5612   2.353   0.511   4.801 -0.6589  0.6462 -1.9018
   60CHL1   C26 5613   2.137   0.482   4.810 -0.2688 -0.5570  0.8268
   60CHL1  H26A 5614   2.066   0.399   4.828 -1.2247  0.2162  0.6980
   60CHL1  H26B 5615   2.131   0.535   4.908  0.9266 -0.2088  0.7281
   60CHL1  H26C 5616   2.099   0.535   4.720 -2.8030 -0.5175  1.8573
   60CHL1   C27 5617   2.306   0.320   4.898  0.3122 -0.0244  0.4180
   60CHL1  H27A 5618   2.307   0.368   4.998 -0.7128 -1.4666  1.1631
   60CHL1  H27B 5619   2.228   0.240   4.894 -0.1814  0.4674  0.0482
   60CHL1  H27C 5620   2.409   0.280   4.884  0.3480  0.4099 -0.7039
   61CHL1    C3 5621   3.028   4.469   3.771  0.1603  0.7670  0.0015
   61CHL1    H3 5622   2.923   4.504   3.780 -0.0350 -0.0496  1.2190
   61CHL1    O3 5623   3.049   4.421   3.645 -0.1449 -0.3304  0.7058
   61CHL1   H3' 5624   3.143   4.433   3.626 -0.4847 -0.0064 -0.9711
   61CHL1    C4 5625   3.117   4.581   3.811  0.3485 -0.0510 -0.7934
   61CHL1   H4A 5626   3.222   4.545   3.805 -0.4650 -3.0399  0.8610
   61CHL1   H4B 5627   3.106   4.664   3.737 -0.8858  0.4159 -0.1249
   61CHL1    C5 5628   3.091   4.620   3.955 -0.1346 -0.5577 -0.5148
   61CHL1    C6 5629   3.041   4.740   3.983 -0.6107 -0.2362  0.0944
   61CHL1    H6 5630   3.041   4.815   3.903  0.3840  0.6664  0.9074
   61CHL1    C7 5631   2.997   4.779   4.121 -0.1635  0.6476  0.0091
   61CHL1   H7A 5632   3.019   4.885   4.144  0.3947  0.4329  0.4847
   61CHL1   H7B 5633   2.886   4.768   4.125 -0.3424  2.5557  1.3015
   61CHL1    C8 5634   3.056   4.693   4.233 -0.2629  0.1527  0.3244
   61CHL1    H8 5635   3.163   4.719   4.243  0.3684 -2.1345  0.1828
   61CHL1   C14 5636   2.985   4.720   4.368  0.3435  0.0303  0.2144
   61CHL1   H14 5637   2.882   4.686   4.348  0.3985 -0.8091  1.2944
   61CHL1   C15 5638   2.981   4.865   4.417 -0.4783  0.1424  0.0595
   61CHL1  H15A 5639   3.082   4.904   4.392  0.2805 -0.9727  1.2441
   61CHL1  H15B 5640   2.906   4.935   4.374 -0.3198 -0.7849 -1.8001
   61CHL1   C16 5641   2.950   4.848   4.568 -0.0331  0.2570 -0.1185
   61CHL1  H16A 5642   2.999   4.912   4.645 -1.1703 -1.0565  1.7889
   61CHL1  H16B 5643   2.845   4.876   4.592 -0.7969 -1.5187 -1.1956
   61CHL1   C17 5644   2.961   4.694   4.600 -0.2899  0.6179 -0.2491
   61CHL1   H17 5645   2.862   4.643   4.594 -0.2546  0.5558 -0.3112
   61CHL1   C13 5646   3.037   4.633   4.479 -0.4707 -0.3101 -0.6333
   61CHL1   C18 5647   3.184   4.665   4.499 -0.2411  0.0963 -0.0451
   61CHL1  H18A 5648   3.244   4.649   4.406  1.4230  0.7593  0.8663
   61CHL1  H18B 5649   3.203   4.770   4.528 -3.2045  0.7583 -0.2124
   61CHL1  H18C 5650   3.233   4.599   4.574 -1.4908 -0.0549  0.6585
   61CHL1   C12 5651   3.003   4.489   4.437  0.0065 -0.1962 -0.8531
   61CHL1  H12A 5652   3.033   4.421   4.519 -1.6036  0.1686  0.0996
   61CHL1  H12B 5653   2.892   4.480   4.429 -0.0357 -0.1299 -0.3812
   61CHL1   C11 5654   3.064   4.452   4.308  0.7490  0.3470 -0.7310
   61CHL1  H11A 5655   3.174   4.435   4.315  0.7716  1.0292  1.0429
   61CHL1  H11B 5656   3.027   4.352   4.279  1.1077 -0.0638  0.1893
   61CHL1    C9 5657   3.037   4.548   4.196 -0.6292  0.1682 -0.0733
   61CHL1    H9 5658   2.929   4.537   4.171 -0.7898 -1.5448  1.1530
   61CHL1   C10 5659   3.096   4.504   4.057  0.2157  0.4508 -0.0633
   61CHL1   C19 5660   3.237   4.455   4.072 -0.1087 -0.2192  0.2132
   61CHL1  H19A 5661   3.302   4.524   4.130  1.3613  0.2244 -1.8855
   61CHL1  H19B 5662   3.228   4.361   4.131 -1.4109 -0.6944 -0.7047
   61CHL1  H19C 5663   3.290   4.434   3.977  0.5835 -2.0695  0.9788
   61CHL1    C1 5664   3.002   4.388   4.005 -0.3256  1.2423 -0.1307
   61CHL1   H1A 5665   3.016   4.293   4.061 -1.6480  1.4321  0.5769
   61CHL1   H1B 5666   2.895   4.420   4.010 -0.4592  1.1708 -1.9139
   61CHL1    C2 5667   3.035   4.347   3.860 -0.2253  0.0146  0.5350
   61CHL1   H2A 5668   2.971   4.268   3.814  0.1413  0.7521 -1.3600
   61CHL1   H2B 5669   3.139   4.308   3.854  0.7254  2.5398 -1.5263
   61CHL1   C20 5670   3.012   4.669   4.747 -0.1186 -0.3985  0.4105
   61CHL1   H20 5671   3.114   4.714   4.744 -0.6732  0.8765  0.2990
   61CHL1   C21 5672   3.037   4.514   4.764 -0.1538  0.5181 -0.1601
   61CHL1  H21A 5673   3.115   4.468   4.697 -0.8662 -0.2171 -0.5043
   61CHL1  H21B 5674   2.942   4.457   4.754 -0.9574  1.6319  0.9844
   61CHL1  H21C 5675   3.077   4.486   4.864 -2.7161  1.0820  1.0938
   61CHL1   C22 5676   2.919   4.726   4.862 -0.1603 -0.1475  0.1672
   61CHL1  H22A 5677   2.880   4.826   4.833  1.6451  0.9443  1.2965
   61CHL1  H22B 5678   2.833   4.656   4.868 -0.1232 -0.2228 -0.1613
   61CHL1   C23 5679   2.978   4.740   5.005  0.5293  0.5941 -0.3235
   61CHL1  H23A 5680   3.044   4.654   5.030  1.4464  1.4488  0.2996
   61CHL1  H23B 5681   3.047   4.827   5.016 -0.5466  1.4508 -0.2390
   61CHL1   C24 5682   2.874   4.768   5.117  0.5955 -0.0353 -0.4435
   61CHL1  H24A 5683   2.825   4.860   5.077  1.6617  0.3862 -0.8119
   61CHL1  H24B 5684   2.800   4.685   5.122 -1.6072  1.8119 -0.4278
   61CHL1   C25 5685   2.922   4.787   5.264 -0.4847 -0.4362  0.3526
   61CHL1   H25 5686   2.984   4.698   5.287 -0.1529 -0.9310 -2.2100
   61CHL1   C26 5687   3.001   4.918   5.266 -0.1256 -0.3530 -0.3176
   61CHL1  H26A 5688   3.108   4.893   5.253 -0.4621 -2.7566  0.9520
   61CHL1  H26B 5689   2.960   4.991   5.193 -0.8627  0.8984  1.2677
   61CHL1  H26C 5690   2.996   4.959   5.369  0.7422  1.4653 -0.9581
   61CHL1   C27 5691   2.802   4.794   5.359  0.0021  0.2957  0.0644
   61CHL1  H27A 5692   2.837   4.786   5.464  1.7884 -1.0663 -0.5954
   61CHL1  H27B 5693   2.750   4.892   5.346  1.6493  0.9613 -2.2335
   61CHL1  H27C 5694   2.737   4.705   5.345 -1.5219  1.6123 -1.6901
   62CHL1    C3 5695   3.351   5.434   3.691 -0.9327  0.8652 -1.3342
   62CHL1    H3 5696   3.287   5.349   3.723 -2.3743  2.1668 -0.6375
   62CHL1    O3 5697   3.368   5.434   3.550  0.1914  0.5018 -0.2157
   62CHL1   H3' 5698   3.289   5.471   3.511 -0.0291  0.1415 -0.1113
   62CHL1    C4 5699   3.289   5.549   3.742 -0.3119 -0.7688  0.6509
   62CHL1   H4A 5700   3.340   5.637   3.696  2.5526 -1.7623  1.6727
   62CHL1   H4B 5701   3.190   5.564   3.695 -0.0918  1.4098  0.7485
   62CHL1    C5 5702   3.294   5.560   3.892 -0.0490 -0.3033 -0.2288
   62CHL1    C6 5703   3.190   5.585   3.973  0.2847  0.4479  1.2014
   62CHL1    H6 5704   3.100   5.579   3.911  1.3198  0.9224 -0.3852
   62CHL1    C7 5705   3.181   5.598   4.119 -0.0790 -0.7188 -0.1387
   62CHL1   H7A 5706   3.116   5.685   4.141 -0.1353 -1.1231  1.4420
   62CHL1   H7B 5707   3.130   5.512   4.169 -2.6495  1.2800  0.9439
   62CHL1    C8 5708   3.319   5.613   4.177 -0.0650 -0.0331 -0.1735
   62CHL1    H8 5709   3.346   5.719   4.161 -2.6934  0.6501 -0.5696
   62CHL1   C14 5710   3.318   5.575   4.324  0.3493 -0.2542  0.3218
   62CHL1   H14 5711   3.295   5.467   4.332  0.8699 -0.3140  1.2530
   62CHL1   C15 5712   3.202   5.633   4.402 -0.3229 -0.1554  0.4092
   62CHL1  H15A 5713   3.194   5.740   4.373  1.4776 -0.4262 -1.2969
   62CHL1  H15B 5714   3.109   5.574   4.386  0.2275 -1.3310  1.3429
   62CHL1   C16 5715   3.243   5.627   4.547 -0.4208 -0.7110 -0.1326
   62CHL1  H16A 5716   3.252   5.733   4.576 -1.3880 -0.6988  0.1531
   62CHL1  H16B 5717   3.175   5.575   4.618 -0.9134  0.5915  0.3609
   62CHL1   C17 5718   3.389   5.572   4.549  0.2346 -0.7289  0.3751
   62CHL1   H17 5719   3.383   5.462   4.556 -0.5726 -0.6697  0.8076
   62CHL1   C13 5720   3.437   5.609   4.402 -0.1010  0.3381  0.2902
   62CHL1   C18 5721   3.459   5.766   4.393  0.3083  0.2496  0.0561
   62CHL1  H18A 5722   3.493   5.793   4.290  1.4623 -0.1077  0.3316
   62CHL1  H18B 5723   3.368   5.822   4.424 -0.4036 -0.6081 -0.4484
   62CHL1  H18C 5724   3.544   5.808   4.452 -0.1234 -0.1963  1.0048
   62CHL1   C12 5725   3.560   5.530   4.346  0.5094  0.8544 -0.2008
   62CHL1  H12A 5726   3.662   5.557   4.383  0.1923  3.2842 -0.9323
   62CHL1  H12B 5727   3.546   5.429   4.391  1.1447  0.7091 -0.3127
   62CHL1   C11 5728   3.563   5.540   4.189  0.3038 -0.5229  0.0048
   62CHL1  H11A 5729   3.622   5.630   4.164  0.4761 -0.8993 -1.0162
   62CHL1  H11B 5730   3.635   5.470   4.141  1.1305  2.7839 -4.1229
   62CHL1    C9 5731   3.428   5.526   4.112  0.1520 -0.0533 -0.0739
   62CHL1    H9 5732   3.388   5.423   4.125 -0.1151  0.2203  1.4056
   62CHL1   C10 5733   3.437   5.551   3.955 -0.7447 -0.9074 -0.5265
   62CHL1   C19 5734   3.520   5.676   3.925  0.2164  0.4180 -0.2181
   62CHL1  H19A 5735   3.624   5.652   3.954  0.0305 -1.5529 -0.9868
   62CHL1  H19B 5736   3.519   5.707   3.818  0.4188  0.2929 -0.2567
   62CHL1  H19C 5737   3.481   5.762   3.984 -1.9087 -1.1099  0.7404
   62CHL1    C1 5738   3.512   5.428   3.905 -0.8940  0.1463  0.0277
   62CHL1   H1A 5739   3.619   5.426   3.934  0.0723 -1.7635 -3.1056
   62CHL1   H1B 5740   3.467   5.335   3.947  1.0321 -0.9393 -0.2150
   62CHL1    C2 5741   3.495   5.416   3.755  0.1514 -0.4971  0.0749
   62CHL1   H2A 5742   3.544   5.328   3.708 -1.3967 -1.3339 -0.0308
   62CHL1   H2B 5743   3.551   5.500   3.708 -0.6645 -1.2221 -2.3547
   62CHL1   C20 5744   3.474   5.623   4.663 -0.1916 -0.7842 -0.4534
   62CHL1   H20 5745   3.498   5.731   4.652 -1.6467 -0.2220  1.3539
   62CHL1   C21 5746   3.608   5.544   4.655  0.0442 -0.2009 -0.2670
   62CHL1  H21A 5747   3.590   5.435   4.641 -0.1049 -0.1211 -0.7060
   62CHL1  H21B 5748   3.660   5.563   4.752  0.1759  1.2918 -0.6084
   62CHL1  H21C 5749   3.676   5.585   4.579  0.2483 -0.8687 -0.4512
   62CHL1   C22 5750   3.403   5.609   4.800 -0.0922 -0.4417 -0.4589
   62CHL1  H22A 5751   3.463   5.657   4.881 -0.7732 -1.9232  0.9833
   62CHL1  H22B 5752   3.310   5.670   4.797  0.5078  0.5429  0.1013
   62CHL1   C23 5753   3.367   5.464   4.852 -0.2556  0.0939  0.3119
   62CHL1  H23A 5754   3.311   5.403   4.779  0.1972 -0.9398  0.8168
   62CHL1  H23B 5755   3.465   5.411   4.857 -0.5097 -0.4129 -0.1102
   62CHL1   C24 5756   3.291   5.465   4.989 -0.1342  0.0358  0.3449
   62CHL1  H24A 5757   3.354   5.538   5.045 -0.9584 -0.8378  2.5064
   62CHL1  H24B 5758   3.187   5.502   4.974 -0.3528 -0.8197 -0.3340
   62CHL1   C25 5759   3.286   5.330   5.062  0.7951 -0.1837 -0.5530
   62CHL1   H25 5760   3.242   5.256   4.992 -1.3391 -0.9665  1.4636
   62CHL1   C26 5761   3.424   5.284   5.092 -0.7779 -0.0320 -0.2769
   62CHL1  H26A 5762   3.485   5.251   5.006  2.4640  0.7005  1.5830
   62CHL1  H26B 5763   3.496   5.354   5.138  0.1194 -1.5204  0.6614
   62CHL1  H26C 5764   3.414   5.202   5.166  4.5330 -0.9039 -0.1881
   62CHL1   C27 5765   3.204   5.325   5.197 -0.6203 -0.1081 -0.0243
   62CHL1  H27A 5766   3.098   5.349   5.174 -0.7660 -0.9992 -0.2971
   62CHL1  H27B 5767   3.204   5.227   5.247 -0.1608 -0.8800 -1.4803
   62CHL1  H27C 5768   3.242   5.403   5.267 -0.0606 -0.6248  0.2562
   63CHL1    C3 5769   2.364   1.865   3.904  0.1266  0.6330 -0.9034
   63CHL1    H3 5770   2.264   1.897   3.939 -0.7148 -2.9053  0.3985
   63CHL1    O3 5771   2.388   1.898   3.772 -0.3798 -0.5035  0.6200
   63CHL1   H3' 5772   2.480   1.883   3.749 -0.3046  0.7756  0.0441
   63CHL1    C4 5773   2.478   1.929   3.988  0.3726  0.9630 -0.5511
   63CHL1   H4A 5774   2.577   1.894   3.952  0.0134  0.1880 -0.8103
   63CHL1   H4B 5775   2.471   2.037   3.963 -0.8078  1.4624  1.7277
   63CHL1    C5 5776   2.456   1.902   4.135  0.2540  0.5689 -0.4313
   63CHL1    C6 5777   2.439   2.001   4.224 -0.1732 -0.3941 -0.1732
   63CHL1    H6 5778   2.446   2.107   4.193 -3.1607 -0.1939 -0.4764
   63CHL1    C7 5779   2.413   1.979   4.368 -0.2563 -0.6385 -0.4989
   63CHL1   H7A 5780   2.474   2.049   4.429 -0.0121 -0.9785 -0.3476
   63CHL1   H7B 5781   2.306   1.994   4.394  0.2587  1.4151  0.7109
   63CHL1    C8 5782   2.454   1.833   4.409 -0.0314 -0.6940  0.2738
   63CHL1    H8 5783   2.564   1.825   4.404  0.2600  1.7757  1.1239
   63CHL1   C14 5784   2.400   1.803   4.551  0.0830 -0.5854  0.1281
   63CHL1   H14 5785   2.293   1.830   4.540  0.4399  0.3584 -1.2729
   63CHL1   C15 5786   2.452   1.895   4.655 -0.5609 -0.4423 -0.5604
   63CHL1  H15A 5787   2.560   1.906   4.633 -0.7755 -2.3002 -2.9359
   63CHL1  H15B 5788   2.408   1.997   4.655 -1.1836 -0.6809 -2.2845
   63CHL1   C16 5789   2.429   1.826   4.794 -0.1541  0.9920  0.1967
   63CHL1  H16A 5790   2.521   1.814   4.855 -0.4641 -2.5842  0.1875
   63CHL1  H16B 5791   2.363   1.883   4.862 -0.2078  0.3932  0.6556
   63CHL1   C17 5792   2.371   1.685   4.748 -0.9314  0.1197 -0.5227
   63CHL1   H17 5793   2.260   1.695   4.742 -1.0687  0.5512  1.7948
   63CHL1   C13 5794   2.421   1.661   4.600 -0.1769 -0.7160 -0.2515
   63CHL1   C18 5795   2.574   1.630   4.599 -0.1488  0.6420 -0.4605
   63CHL1  H18A 5796   2.640   1.699   4.657 -0.5672  0.0216  0.7803
   63CHL1  H18B 5797   2.589   1.524   4.626 -0.9791  1.0886  2.0485
   63CHL1  H18C 5798   2.609   1.630   4.493 -0.8764 -1.9674 -0.7669
   63CHL1   C12 5799   2.350   1.558   4.508  0.4799  1.0854  0.3592
   63CHL1  H12A 5800   2.369   1.455   4.546 -0.9219  0.6256 -0.0957
   63CHL1  H12B 5801   2.240   1.573   4.514  0.4602  0.7563  0.8564
   63CHL1   C11 5802   2.389   1.576   4.362 -0.6470  0.5687  0.2424
   63CHL1  H11A 5803   2.488   1.527   4.354  0.6073  2.3481  3.1975
   63CHL1  H11B 5804   2.322   1.519   4.293  0.2968 -1.2504  0.7736
   63CHL1    C9 5805   2.391   1.729   4.311  0.0653  0.2279  0.5100
   63CHL1    H9 5806   2.285   1.762   4.315 -0.5871 -1.3295 -1.9117
   63CHL1   C10 5807   2.440   1.745   4.163  0.0800 -0.7138 -0.7377
   63CHL1   C19 5808   2.586   1.686   4.153  0.5475 -0.0359 -0.5102
   63CHL1  H19A 5809   2.567   1.579   4.174 -2.1135  0.7387  1.5778
   63CHL1  H19B 5810   2.616   1.703   4.048  1.4274  1.3865 -0.0488
   63CHL1  H19C 5811   2.653   1.738   4.225 -0.0742 -1.5102  1.2261
   63CHL1    C1 5812   2.355   1.664   4.057  0.4107 -0.1979  0.0120
   63CHL1   H1A 5813   2.397   1.562   4.064 -1.9097 -1.2448 -0.4242
   63CHL1   H1B 5814   2.251   1.685   4.088 -0.1217  0.3986 -2.0412
   63CHL1    C2 5815   2.365   1.714   3.909  0.1215 -0.0007  0.4832
   63CHL1   H2A 5816   2.286   1.672   3.843 -0.1105  0.2487  0.5995
   63CHL1   H2B 5817   2.459   1.670   3.871 -0.2340  0.1410 -0.5759
   63CHL1   C20 5818   2.401   1.573   4.847  0.3843 -0.2805  0.0589
   63CHL1   H20 5819   2.510   1.551   4.841  0.3488 -0.2622 -0.7336
   63CHL1   C21 5820   2.318   1.445   4.823  0.0500  0.2477 -0.2071
   63CHL1  H21A 5821   2.212   1.469   4.848  0.4172  1.4022  0.3501
   63CHL1  H21B 5822   2.362   1.363   4.883 -0.2721  0.3605  0.1904
   63CHL1  H21C 5823   2.330   1.409   4.719  0.8161  2.0423 -0.7818
   63CHL1   C22 5824   2.372   1.617   4.990  0.6085 -0.7922 -0.5846
   63CHL1  H22A 5825   2.437   1.699   5.030  1.5621 -1.9202  0.2612
   63CHL1  H22B 5826   2.272   1.665   4.987  2.0144  2.5700  0.6892
   63CHL1   C23 5827   2.352   1.503   5.092 -0.2886  0.0856 -1.0369
   63CHL1  H23A 5828   2.267   1.438   5.062 -1.4054  0.3187  1.3691
   63CHL1  H23B 5829   2.453   1.457   5.095  0.1590  1.0718 -0.4986
   63CHL1   C24 5830   2.333   1.552   5.234  0.5470 -0.5540 -0.9235
   63CHL1  H24A 5831   2.412   1.616   5.279 -1.2933 -0.2682  2.2069
   63CHL1  H24B 5832   2.236   1.607   5.238  0.2992 -1.0339 -0.1988
   63CHL1   C25 5833   2.310   1.443   5.341 -0.1259  0.6168 -0.3165
   63CHL1   H25 5834   2.307   1.489   5.442  0.2946 -0.3887  0.1646
   63CHL1   C26 5835   2.168   1.367   5.329 -0.3177 -0.2825 -0.3753
   63CHL1  H26A 5836   2.086   1.436   5.301 -1.8263 -2.1722 -0.8863
   63CHL1  H26B 5837   2.182   1.289   5.251  0.9231 -1.2501  0.7611
   63CHL1  H26C 5838   2.153   1.314   5.425  0.0536  0.2986  0.0114
   63CHL1   C27 5839   2.431   1.347   5.352 -1.0621  0.6163  0.2629
   63CHL1  H27A 5840   2.433   1.290   5.447 -1.4954  0.8729  0.4335
   63CHL1  H27B 5841   2.458   1.293   5.259 -2.9280  2.6877 -1.6030
   63CHL1  H27C 5842   2.523   1.403   5.379  1.0434 -2.8332  0.7129
   64CHL1    C3 5843   5.021   6.208   3.797 -0.6193 -0.4497  0.3417
   64CHL1    H3 5844   4.951   6.292   3.820  1.3300  1.8529 -1.5362
   64CHL1    O3 5845   5.015   6.169   3.660  0.0098  0.6484 -0.1111
   64CHL1   H3' 5846   5.007   6.248   3.606 -1.8496  0.0080 -0.8651
   64CHL1    C4 5847   5.165   6.254   3.845  0.1158 -0.3408  0.7367
   64CHL1   H4A 5848   5.235   6.171   3.821  2.2503  1.4058  0.6379
   64CHL1   H4B 5849   5.196   6.345   3.789  1.7713 -1.7151 -0.7088
   64CHL1    C5 5850   5.161   6.272   3.998  0.2169  0.1966  0.2714
   64CHL1    C6 5851   5.194   6.392   4.042  0.0886 -0.0059  0.1276
   64CHL1    H6 5852   5.225   6.469   3.971 -0.9639 -0.0310 -0.3862
   64CHL1    C7 5853   5.188   6.434   4.186 -0.6317 -0.8207 -0.6055
   64CHL1   H7A 5854   5.267   6.505   4.219  0.1655 -1.7525 -0.4573
   64CHL1   H7B 5855   5.091   6.479   4.216  0.3307  0.2017  1.1342
   64CHL1    C8 5856   5.195   6.318   4.283 -0.1331  0.2348 -0.0370
   64CHL1    H8 5857   5.296   6.272   4.281 -0.3110 -0.1513 -0.7146
   64CHL1   C14 5858   5.164   6.370   4.423 -0.0446 -0.7953  0.0544
   64CHL1   H14 5859   5.070   6.429   4.427  1.3386  1.6624 -1.3198
   64CHL1   C15 5860   5.258   6.472   4.482  0.2460  0.0812  0.3644
   64CHL1  H15A 5861   5.364   6.444   4.461  0.5711  0.6897  1.1172
   64CHL1  H15B 5862   5.233   6.573   4.444 -3.5124 -0.3897  1.2265
   64CHL1   C16 5863   5.232   6.464   4.636  0.3973 -0.4559 -0.3533
   64CHL1  H16A 5864   5.324   6.434   4.690  0.2806 -1.3881 -0.6485
   64CHL1  H16B 5865   5.209   6.565   4.676  2.9081 -0.2700  0.8197
   64CHL1   C17 5866   5.123   6.351   4.657 -0.8359  0.0717 -0.0239
   64CHL1   H17 5867   5.022   6.396   4.647 -0.7797  0.3153  0.4627
   64CHL1   C13 5868   5.150   6.259   4.533  0.4533  0.5424 -0.0615
   64CHL1   C18 5869   5.281   6.182   4.553 -0.3297 -0.3048 -0.3034
   64CHL1  H18A 5870   5.318   6.141   4.456  0.4248  0.8825 -0.5334
   64CHL1  H18B 5871   5.358   6.247   4.599 -1.7407  3.0776 -2.3148
   64CHL1  H18C 5872   5.262   6.099   4.624 -2.0345  1.4277  1.4018
   64CHL1   C12 5873   5.037   6.160   4.492  0.2857 -0.3081  0.0058
   64CHL1  H12A 5874   5.045   6.070   4.558 -0.5093 -0.1606  0.3140
   64CHL1  H12B 5875   4.931   6.195   4.490  0.7819  1.2751 -2.7376
   64CHL1   C11 5876   5.063   6.101   4.352 -0.7259  0.6415 -0.1862
   64CHL1  H11A 5877   5.150   6.032   4.342 -1.2475 -0.0886  0.2633
   64CHL1  H11B 5878   4.972   6.040   4.335  0.3810 -1.5889  1.3024
   64CHL1    C9 5879   5.087   6.209   4.240 -0.1753 -0.5920  1.1183
   64CHL1    H9 5880   4.994   6.270   4.237  1.7826  2.5726 -0.5483
   64CHL1   C10 5881   5.109   6.158   4.095  0.1767 -0.0074  0.2195
   64CHL1   C19 5882   5.209   6.049   4.091 -0.3339  0.1976 -0.9303
   64CHL1  H19A 5883   5.178   5.949   4.129  2.5533 -0.9632 -1.3971
   64CHL1  H19B 5884   5.253   6.029   3.991  1.4057  0.0231 -0.1672
   64CHL1  H19C 5885   5.301   6.077   4.146 -0.2695  0.3052 -1.0904
   64CHL1    C1 5886   4.976   6.114   4.031  0.2152 -1.1900  0.0756
   64CHL1   H1A 5887   4.933   6.023   4.079 -0.7941  0.5197  2.6779
   64CHL1   H1B 5888   4.896   6.187   4.058 -1.5701 -1.3652 -4.0717
   64CHL1    C2 5889   4.976   6.091   3.879 -0.1755 -0.5741 -0.2617
   64CHL1   H2A 5890   4.872   6.069   3.848  0.7702 -1.6807 -2.9195
   64CHL1   H2B 5891   5.046   6.009   3.855  0.7561  0.2161 -0.3266
   64CHL1   C20 5892   5.122   6.291   4.800 -0.1012  0.2998 -0.4336
   64CHL1   H20 5893   5.216   6.232   4.814 -0.0165  0.0572 -1.8744
   64CHL1   C21 5894   5.003   6.190   4.811 -0.0398  0.6228 -0.1310
   64CHL1  H21A 5895   4.902   6.232   4.788 -1.3408 -1.6264  1.0466
   64CHL1  H21B 5896   4.990   6.157   4.917 -0.2098 -2.0202 -0.8960
   64CHL1  H21C 5897   5.022   6.095   4.757 -1.3877  0.3963 -0.2619
   64CHL1   C22 5898   5.102   6.401   4.905  0.2307 -0.5994  0.2915
   64CHL1  H22A 5899   5.167   6.489   4.884  3.1292 -2.4341  0.9572
   64CHL1  H22B 5900   4.998   6.440   4.901  0.5469  0.5344  1.7689
   64CHL1   C23 5901   5.124   6.367   5.054 -0.3772  0.2375  1.1451
   64CHL1  H23A 5902   5.071   6.273   5.081 -1.5125  0.9385  1.3810
   64CHL1  H23B 5903   5.231   6.341   5.073 -1.0012 -0.4372  4.2017
   64CHL1   C24 5904   5.091   6.481   5.150 -0.2767  0.4008  0.0090
   64CHL1  H24A 5905   5.151   6.570   5.123 -0.4142  0.3507 -0.4733
   64CHL1  H24B 5906   4.983   6.508   5.144 -0.3217  0.6062  1.4697
   64CHL1   C25 5907   5.132   6.445   5.297  0.6339  0.2827 -0.1933
   64CHL1   H25 5908   5.242   6.433   5.310  0.7285  2.8315  2.2353
   64CHL1   C26 5909   5.080   6.565   5.384  0.1825  0.4331 -0.2599
   64CHL1  H26A 5910   5.097   6.556   5.494 -0.3883  2.0996 -0.0076
   64CHL1  H26B 5911   5.130   6.660   5.355 -1.3882  2.1005  2.0645
   64CHL1  H26C 5912   4.970   6.580   5.381 -0.2970 -1.9586  1.6891
   64CHL1   C27 5913   5.061   6.324   5.357  0.2665 -0.0951  0.0183
   64CHL1  H27A 5914   4.952   6.329   5.336 -0.1529 -1.4794  1.6281
   64CHL1  H27B 5915   5.093   6.234   5.300  2.9331 -0.1127  1.3948
   64CHL1  H27C 5916   5.074   6.301   5.465 -1.2555 -0.6522  0.1114
   65CHL1    C3 5917   4.074   6.458   3.788 -0.2763 -0.9893  0.3054
   65CHL1    H3 5918   4.184   6.462   3.802 -0.1871 -0.1890 -0.4795
   65CHL1    O3 5919   4.041   6.459   3.648 -0.2536 -0.1931 -0.3205
   65CHL1   H3' 5920   4.110   6.506   3.601 -0.0076  0.3344  0.5492
   65CHL1    C4 5921   4.030   6.336   3.866 -0.0694 -0.4062 -0.0589
   65CHL1   H4A 5922   3.920   6.327   3.859 -0.5414  0.7321  3.5396
   65CHL1   H4B 5923   4.083   6.256   3.811  1.1925 -2.0333  3.2308
   65CHL1    C5 5924   4.071   6.340   4.016  0.3402  0.0159  0.0265
   65CHL1    C6 5925   4.148   6.245   4.071 -0.2838  0.0716 -0.3096
   65CHL1    H6 5926   4.180   6.173   3.995  1.6927  2.4032 -1.8404
   65CHL1    C7 5927   4.189   6.227   4.219 -0.1154 -0.5996 -0.1251
   65CHL1   H7A 5928   4.160   6.128   4.259 -0.4382 -0.5309 -0.1801
   65CHL1   H7B 5929   4.298   6.231   4.236 -0.2800 -1.8699  1.4160
   65CHL1    C8 5930   4.104   6.321   4.302 -0.6632 -0.5220  0.8004
   65CHL1    H8 5931   3.998   6.286   4.309 -1.0979  0.9989  2.7286
   65CHL1   C14 5932   4.155   6.328   4.444 -0.2165  0.4465  0.1142
   65CHL1   H14 5933   4.255   6.370   4.424  0.4279 -0.9893  0.2204
   65CHL1   C15 5934   4.186   6.201   4.526  0.3978 -0.4630 -0.3084
   65CHL1  H15A 5935   4.099   6.133   4.530  0.6338 -0.7321  0.4492
   65CHL1  H15B 5936   4.260   6.136   4.475 -2.3151 -0.3694 -4.9172
   65CHL1   C16 5937   4.218   6.256   4.665 -0.9097 -0.4500  0.1258
   65CHL1  H16A 5938   4.158   6.197   4.737 -0.3721 -0.1689  0.8186
   65CHL1  H16B 5939   4.327   6.246   4.686  0.3193  0.6572 -4.6351
   65CHL1   C17 5940   4.178   6.410   4.666  0.0858  0.0002  0.3203
   65CHL1   H17 5941   4.275   6.456   4.636  0.6565 -1.5088 -0.2782
   65CHL1   C13 5942   4.088   6.426   4.541 -0.0864 -0.1776 -0.0842
   65CHL1   C18 5943   3.944   6.373   4.574 -0.1087  0.2311 -0.0922
   65CHL1  H18A 5944   3.901   6.344   4.476  0.6923 -0.1070 -0.3502
   65CHL1  H18B 5945   3.948   6.278   4.631 -2.0108  0.3926  0.4053
   65CHL1  H18C 5946   3.895   6.440   4.648  0.6472 -0.2021  0.8229
   65CHL1   C12 5947   4.090   6.562   4.478  0.3700  0.3883 -0.0887
   65CHL1  H12A 5948   4.054   6.647   4.541 -1.5525 -0.1415 -0.3930
   65CHL1  H12B 5949   4.195   6.590   4.456  1.3116 -1.7881  1.3278
   65CHL1   C11 5950   4.023   6.562   4.343  0.0064  0.2027 -0.3687
   65CHL1  H11A 5951   3.917   6.533   4.359 -0.0533  1.1498  1.2231
   65CHL1  H11B 5952   4.034   6.665   4.304 -0.2022 -0.3709 -2.0064
   65CHL1    C9 5953   4.088   6.465   4.235 -0.3912 -0.4144 -0.1051
   65CHL1    H9 5954   4.193   6.499   4.223  0.2440 -2.1570  0.1920
   65CHL1   C10 5955   4.019   6.455   4.094 -0.0351 -0.3570 -0.0662
   65CHL1   C19 5956   3.867   6.440   4.113 -0.2113  1.0246 -0.3079
   65CHL1  H19A 5957   3.831   6.527   4.172 -1.2239  0.1461  0.4133
   65CHL1  H19B 5958   3.808   6.426   4.020 -1.0606 -0.1757  0.3708
   65CHL1  H19C 5959   3.829   6.361   4.181 -0.8410 -1.0831 -2.9533
   65CHL1    C1 5960   4.052   6.581   4.005 -0.0216 -0.3324 -0.1952
   65CHL1   H1A 5961   4.010   6.670   4.058  0.4829  0.6632 -1.4240
   65CHL1   H1B 5962   4.161   6.600   4.016 -0.2831  0.2317  2.0023
   65CHL1    C2 5963   4.016   6.582   3.858 -0.0327 -0.5104  0.3377
   65CHL1   H2A 5964   4.054   6.679   3.819 -2.2271  0.8074  1.2774
   65CHL1   H2B 5965   3.906   6.581   3.840 -0.3035 -1.1000  1.8666
   65CHL1   C20 5966   4.126   6.457   4.801  0.5834  0.2048 -0.1385
   65CHL1   H20 5967   4.024   6.416   4.816  0.6035  0.3360  0.3544
   65CHL1   C21 5968   4.106   6.608   4.803  0.3463  0.0869 -0.0889
   65CHL1  H21A 5969   4.195   6.661   4.764  0.8219 -0.2118  0.5678
   65CHL1  H21B 5970   4.089   6.637   4.909  3.0952 -1.4202  0.8644
   65CHL1  H21C 5971   4.018   6.641   4.743 -0.0735  0.8650  0.9135
   65CHL1   C22 5972   4.211   6.408   4.920 -0.3793  0.5910 -0.2919
   65CHL1  H22A 5973   4.224   6.298   4.928 -0.1204  0.5291 -1.3633
   65CHL1  H22B 5974   4.314   6.448   4.907 -0.5865  1.7093  1.2605
   65CHL1   C23 5975   4.156   6.430   5.061 -0.6665 -0.8421  0.3578
   65CHL1  H23A 5976   4.167   6.541   5.070  1.5622 -0.8164 -1.7186
   65CHL1  H23B 5977   4.048   6.406   5.052 -0.8478  0.3805 -1.1134
   65CHL1   C24 5978   4.242   6.362   5.175 -0.5031  0.4514 -0.1535
   65CHL1  H24A 5979   4.259   6.255   5.153  1.5550  0.2541  1.9592
   65CHL1  H24B 5980   4.344   6.405   5.166 -0.5867  0.8453  0.6633
   65CHL1   C25 5981   4.184   6.373   5.312  0.5316  0.2622  0.4989
   65CHL1   H25 5982   4.076   6.347   5.310 -0.4578  3.9281 -1.1322
   65CHL1   C26 5983   4.266   6.289   5.416 -1.1951  0.2255 -0.4295
   65CHL1  H26A 5984   4.257   6.182   5.389  1.1066 -0.2433  0.4349
   65CHL1  H26B 5985   4.372   6.319   5.432 -1.0090 -1.0150  0.8658
   65CHL1  H26C 5986   4.227   6.307   5.518 -0.3442  0.2438 -0.1007
   65CHL1   C27 5987   4.174   6.515   5.365  0.2272  0.4241  0.0854
   65CHL1  H27A 5988   4.275   6.556   5.390  0.0935 -0.4690  2.2892
   65CHL1  H27B 5989   4.114   6.582   5.301  1.5222  1.1001 -0.4526
   65CHL1  H27C 5990   4.117   6.513   5.460 -0.9003  1.2150 -0.5522
   66CHL1    C3 5991   2.582   4.351   4.058  0.1998 -0.9572  0.3769
   66CHL1    H3 5992   2.612   4.442   4.113 -2.6522 -1.0313  2.2404
   66CHL1    O3 5993   2.634   4.354   3.930 -0.0672  0.2478 -0.3056
   66CHL1   H3' 5994   2.635   4.265   3.896  0.0188 -0.0701  0.5051
   66CHL1    C4 5995   2.633   4.231   4.127 -1.0462  0.3349  0.5099
   66CHL1   H4A 5996   2.601   4.142   4.068  2.1026  0.7927 -2.1938
   66CHL1   H4B 5997   2.743   4.222   4.117 -1.0662 -0.8005  1.1588
   66CHL1    C5 5998   2.592   4.240   4.270 -0.0270 -0.1003 -0.3005
   66CHL1    C6 5999   2.673   4.236   4.376 -1.0152  0.4037  0.0558
   66CHL1    H6 6000   2.780   4.224   4.353 -1.0176 -1.4883  0.7854
   66CHL1    C7 6001   2.628   4.262   4.518 -0.1673  0.2091  0.1702
   66CHL1   H7A 6002   2.694   4.196   4.578 -0.4636 -0.4564 -0.2313
   66CHL1   H7B 6003   2.653   4.368   4.543 -0.0956 -0.1788  1.8892
   66CHL1    C8 6004   2.479   4.228   4.544  0.5683 -0.0694 -0.0656
   66CHL1    H8 6005   2.485   4.119   4.528  1.7096 -0.1400  0.7133
   66CHL1   C14 6006   2.431   4.276   4.680 -0.5622  0.3912 -0.2266
   66CHL1   H14 6007   2.436   4.387   4.679 -1.6766  0.5681  2.5462
   66CHL1   C15 6008   2.515   4.241   4.809  0.2946  0.1395  0.4211
   66CHL1  H15A 6009   2.550   4.135   4.805 -1.3379 -0.3848 -0.7788
   66CHL1  H15B 6010   2.611   4.296   4.820  0.0323  1.0588 -1.5214
   66CHL1   C16 6011   2.414   4.268   4.926  0.2036 -0.2999  0.6334
   66CHL1  H16A 6012   2.422   4.183   4.998  3.9384 -2.3742 -1.9099
   66CHL1  H16B 6013   2.445   4.358   4.984  1.9276 -0.4721  0.0353
   66CHL1   C17 6014   2.270   4.283   4.867 -0.2905 -0.1261 -0.4122
   66CHL1   H17 6015   2.257   4.393   4.868  0.8697  0.0276 -0.9226
   66CHL1   C13 6016   2.284   4.243   4.716  0.2015 -0.0067 -0.5907
   66CHL1   C18 6017   2.259   4.085   4.711 -0.3303 -1.0475  0.3387
   66CHL1  H18A 6018   2.298   4.036   4.803  1.0803 -0.7642 -0.0867
   66CHL1  H18B 6019   2.148   4.075   4.704 -0.3136 -0.1372 -3.5116
   66CHL1  H18C 6020   2.293   4.045   4.613 -0.7043 -0.9660  0.1727
   66CHL1   C12 6021   2.192   4.315   4.618  0.5565 -0.6903  0.0374
   66CHL1  H12A 6022   2.093   4.271   4.644  1.0966 -2.2202 -0.4280
   66CHL1  H12B 6023   2.208   4.420   4.650 -2.7183 -0.3859  1.1347
   66CHL1   C11 6024   2.234   4.283   4.477  0.4556  0.2682 -0.3598
   66CHL1  H11A 6025   2.194   4.180   4.461  1.1731 -0.0903  0.1353
   66CHL1  H11B 6026   2.180   4.347   4.404 -0.9845  0.0072  0.4345
   66CHL1    C9 6027   2.384   4.298   4.442  0.0033  0.2775  0.5645
   66CHL1    H9 6028   2.404   4.407   4.447 -0.0557  0.4391 -1.8624
   66CHL1   C10 6029   2.427   4.256   4.297 -0.1564 -0.2088  0.0044
   66CHL1   C19 6030   2.359   4.126   4.260  0.2732  0.0086  0.6898
   66CHL1  H19A 6031   2.394   4.086   4.163 -0.3791  0.7236  0.1478
   66CHL1  H19B 6032   2.383   4.047   4.335 -1.7243  0.8571  2.3181
   66CHL1  H19C 6033   2.248   4.132   4.257  0.3592  1.2636 -0.3618
   66CHL1    C1 6034   2.376   4.358   4.192  0.3135 -0.8995 -0.0225
   66CHL1   H1A 6035   2.266   4.344   4.199  0.3025 -0.3494  1.1134
   66CHL1   H1B 6036   2.395   4.457   4.240 -1.4314 -1.5413  2.1688
   66CHL1    C2 6037   2.427   4.354   4.053  0.1527 -0.4640 -0.1096
   66CHL1   H2A 6038   2.385   4.435   3.989 -0.3075  0.1843  0.9729
   66CHL1   H2B 6039   2.398   4.256   4.010  0.0072 -0.9841  1.1273
   66CHL1   C20 6040   2.158   4.220   4.957  0.2718 -0.9060  0.5941
   66CHL1   H20 6041   2.179   4.112   4.976  0.7455 -0.6740  1.4324
   66CHL1   C21 6042   2.017   4.232   4.888  0.5154 -0.9358 -0.1860
   66CHL1  H21A 6043   1.934   4.199   4.955 -0.1164 -0.2723 -0.6242
   66CHL1  H21B 6044   2.019   4.164   4.800  0.4250 -2.0035  0.6117
   66CHL1  H21C 6045   1.994   4.335   4.856  0.8884 -1.0312 -0.7700
   66CHL1   C22 6046   2.151   4.298   5.089 -0.4801 -0.1596  0.3009
   66CHL1  H22A 6047   2.257   4.298   5.123 -0.4098  0.2255  0.0969
   66CHL1  H22B 6048   2.118   4.402   5.066  1.3325  0.5790  0.8186
   66CHL1   C23 6049   2.070   4.236   5.204  0.9872 -0.4427 -0.2564
   66CHL1  H23A 6050   1.961   4.227   5.183 -0.1611  2.5038  3.3149
   66CHL1  H23B 6051   2.108   4.133   5.221  1.5925 -0.4712 -1.6631
   66CHL1   C24 6052   2.088   4.321   5.334  0.1517 -0.1679  0.2483
   66CHL1  H24A 6053   2.192   4.360   5.341  1.0386 -2.5616  2.0000
   66CHL1  H24B 6054   2.035   4.417   5.321  0.9114  0.0033 -1.8692
   66CHL1   C25 6055   2.038   4.258   5.461 -0.3737  0.7202  0.3277
   66CHL1   H25 6056   2.077   4.154   5.470 -1.8999  0.0562 -0.2177
   66CHL1   C26 6057   2.077   4.329   5.587  0.4050  0.4328 -0.2519
   66CHL1  H26A 6058   2.081   4.439   5.567 -0.2805  0.7498  1.2290
   66CHL1  H26B 6059   2.021   4.302   5.678  2.8156 -0.2038  1.1261
   66CHL1  H26C 6060   2.184   4.305   5.608  0.2660 -0.1320 -0.1995
   66CHL1   C27 6061   1.880   4.244   5.467 -1.5218 -0.3055 -0.0222
   66CHL1  H27A 6062   1.835   4.345   5.458 -1.0513 -0.0221  0.6799
   66CHL1  H27B 6063   1.853   4.196   5.564  3.8568 -0.9932  1.4893
   66CHL1  H27C 6064   1.832   4.179   5.391  0.0545 -1.3769 -0.1534
   67CHL1    C3 6065   0.660   5.337   3.410  0.1246 -0.6882 -0.0307
   67CHL1    H3 6066   0.742   5.409   3.388  0.7985 -1.3786  0.1794
   67CHL1    O3 6067   0.602   5.297   3.289  0.7124 -0.1578 -0.5962
   67CHL1   H3' 6068   0.577   5.383   3.254  0.9046 -0.3184 -1.1433
   67CHL1    C4 6069   0.729   5.226   3.485  0.0865  0.2140  0.6653
   67CHL1   H4A 6070   0.660   5.139   3.480 -2.6759  2.2765  0.0936
   67CHL1   H4B 6071   0.816   5.202   3.421 -0.8850  2.3643 -1.6205
   67CHL1    C5 6072   0.753   5.261   3.629 -0.0975  0.1541  0.0156
   67CHL1    C6 6073   0.872   5.236   3.681  0.5475  0.1333  0.6055
   67CHL1    H6 6074   0.944   5.191   3.612  0.1210  0.8355 -0.3124
   67CHL1    C7 6075   0.897   5.234   3.828  0.0393 -0.0816  0.1017
   67CHL1   H7A 6076   0.948   5.138   3.851  0.1668 -0.3659 -1.2624
   67CHL1   H7B 6077   0.963   5.319   3.856  1.6946 -1.3354  0.1741
   67CHL1    C8 6078   0.771   5.254   3.916  0.0554 -0.6229  0.7923
   67CHL1    H8 6079   0.719   5.157   3.931  0.0076 -0.4780  1.6445
   67CHL1   C14 6080   0.812   5.290   4.058 -1.0016  0.5663  0.3561
   67CHL1   H14 6081   0.863   5.389   4.056  1.3292 -0.5548  0.6183
   67CHL1   C15 6082   0.915   5.198   4.119 -0.0671  0.1581 -0.1791
   67CHL1  H15A 6083   0.895   5.093   4.089 -0.0164  0.2221 -0.4332
   67CHL1  H15B 6084   1.020   5.220   4.093 -0.2252  1.7772  0.4515
   67CHL1   C16 6085   0.895   5.214   4.271  0.2173  0.8439  0.0778
   67CHL1  H16A 6086   0.885   5.116   4.322  0.9677  0.1943 -0.9746
   67CHL1  H16B 6087   0.992   5.259   4.303  1.2135 -1.4603  0.4455
   67CHL1   C17 6088   0.775   5.312   4.291  0.2390 -0.1582 -0.0693
   67CHL1   H17 6089   0.819   5.414   4.293 -2.6526  1.1690  0.3536
   67CHL1   C13 6090   0.695   5.298   4.154  0.3652 -0.9175  0.6735
   67CHL1   C18 6091   0.612   5.165   4.168  0.2701  1.0476 -0.6205
   67CHL1  H18A 6092   0.668   5.081   4.214 -1.2412 -0.3248 -1.1790
   67CHL1  H18B 6093   0.525   5.191   4.231 -1.2473 -0.5293 -1.9534
   67CHL1  H18C 6094   0.580   5.117   4.073  0.7955 -0.3465 -0.1189
   67CHL1   C12 6095   0.594   5.408   4.112 -0.1168 -0.3766  0.3044
   67CHL1  H12A 6096   0.502   5.404   4.174  0.7861 -0.7666  1.6575
   67CHL1  H12B 6097   0.636   5.510   4.118 -1.0824  0.1441 -1.2121
   67CHL1   C11 6098   0.559   5.393   3.963  0.4733  0.3515 -0.0746
   67CHL1  H11A 6099   0.492   5.304   3.964  0.7429  0.1435  1.0235
   67CHL1  H11B 6100   0.506   5.484   3.929  0.2689 -0.3836 -1.8329
   67CHL1    C9 6101   0.674   5.361   3.859 -0.4170 -0.0565  0.8028
   67CHL1    H9 6102   0.739   5.451   3.856  0.6723 -0.8475 -0.1034
   67CHL1   C10 6103   0.632   5.323   3.717  0.1287 -0.3443 -0.2059
   67CHL1   C19 6104   0.532   5.210   3.731 -0.0832  0.1248  0.7624
   67CHL1  H19A 6105   0.440   5.242   3.785 -1.1982  0.2098 -1.1056
   67CHL1  H19B 6106   0.503   5.193   3.625  1.2560  0.6091  0.2994
   67CHL1  H19C 6107   0.566   5.120   3.785  1.1327  0.8944  1.3249
   67CHL1    C1 6108   0.575   5.437   3.632  0.1652  0.1908 -0.9896
   67CHL1   H1A 6109   0.484   5.483   3.675 -0.6899 -0.9913 -1.4639
   67CHL1   H1B 6110   0.653   5.516   3.637 -0.0705  0.3384  1.3603
   67CHL1    C2 6111   0.548   5.409   3.487  0.0354  0.7777  0.1827
   67CHL1   H2A 6112   0.531   5.503   3.431 -0.3106  0.8601  0.4215
   67CHL1   H2B 6113   0.449   5.359   3.476 -1.1489  3.1900 -0.9826
   67CHL1   C20 6114   0.703   5.281   4.423  0.5129 -0.2114  0.4746
   67CHL1   H20 6115   0.653   5.182   4.427  0.8382 -0.3484  1.2156
   67CHL1   C21 6116   0.597   5.389   4.449 -0.4903  0.5302  0.0999
   67CHL1  H21A 6117   0.545   5.366   4.544  0.3897  0.4916  0.5827
   67CHL1  H21B 6118   0.523   5.381   4.367 -1.1529  0.4282  0.7058
   67CHL1  H21C 6119   0.637   5.492   4.460 -0.2873  0.5277 -0.5486
   67CHL1   C22 6120   0.783   5.266   4.550  0.5962 -0.1988 -0.5249
   67CHL1  H22A 6121   0.873   5.205   4.528 -0.4497 -1.2942 -1.9621
   67CHL1  H22B 6122   0.814   5.369   4.580 -2.7270  0.6472  0.3891
   67CHL1   C23 6123   0.703   5.182   4.663 -0.5249  0.3249 -0.4650
   67CHL1  H23A 6124   0.606   5.228   4.692 -0.2989  0.8447 -0.5124
   67CHL1  H23B 6125   0.676   5.091   4.607  0.3434 -0.1008 -0.2056
   67CHL1   C24 6126   0.787   5.157   4.790  0.3184  0.5921 -0.9641
   67CHL1  H24A 6127   0.878   5.104   4.755 -1.5783 -1.4151 -3.1612
   67CHL1  H24B 6128   0.822   5.250   4.840  0.1937  0.8282 -1.3107
   67CHL1   C25 6129   0.705   5.084   4.903 -0.1856  0.2086 -0.2914
   67CHL1   H25 6130   0.617   5.144   4.934  0.3874  1.4097 -0.9011
   67CHL1   C26 6131   0.647   4.950   4.855 -0.9064  0.0229 -0.0697
   67CHL1  H26A 6132   0.579   4.974   4.770  0.9774  0.0477 -1.6372
   67CHL1  H26B 6133   0.733   4.887   4.826  0.1073  0.7269  1.2984
   67CHL1  H26C 6134   0.590   4.905   4.938  1.4988  0.5328  1.9641
   67CHL1   C27 6135   0.794   5.076   5.032  0.3451  0.1709  0.0065
   67CHL1  H27A 6136   0.868   5.156   5.054 -2.0192  1.5978  3.7714
   67CHL1  H27B 6137   0.739   5.072   5.129  1.2842 -0.2431  0.5351
   67CHL1  H27C 6138   0.851   4.980   5.035  1.4297  0.8151  1.3272
   68CHL1    C3 6139   4.334   3.437   3.776  0.2899  0.8236  0.4193
   68CHL1    H3 6140   4.275   3.481   3.859  0.7094  0.7214  0.7752
   68CHL1    O3 6141   4.255   3.416   3.663  0.2580 -0.4937  0.2456
   68CHL1   H3' 6142   4.319   3.403   3.593  0.5567  1.5751  0.0845
   68CHL1    C4 6143   4.441   3.534   3.747  0.5251  0.0113  0.7082
   68CHL1   H4A 6144   4.508   3.495   3.667  0.7435 -3.1967  2.2618
   68CHL1   H4B 6145   4.391   3.625   3.707 -0.8393 -0.4810  1.2270
   68CHL1    C5 6146   4.524   3.564   3.867 -0.0325 -0.2478  0.2856
   68CHL1    C6 6147   4.531   3.691   3.916  0.2203 -0.0415 -0.4408
   68CHL1    H6 6148   4.478   3.769   3.860  0.0144 -0.5093 -0.9155
   68CHL1    C7 6149   4.602   3.722   4.047 -0.0262  0.0437 -0.1614
   68CHL1   H7A 6150   4.655   3.820   4.041 -2.3621  1.2987 -3.5097
   68CHL1   H7B 6151   4.530   3.748   4.127  0.8282  0.6822  0.4155
   68CHL1    C8 6152   4.704   3.613   4.090 -0.4575 -0.1559  0.5420
   68CHL1    H8 6153   4.794   3.609   4.026  0.5367  1.1982  1.7820
   68CHL1   C14 6154   4.753   3.641   4.228  0.7199  0.3261 -0.0968
   68CHL1   H14 6155   4.666   3.640   4.297  0.9864 -0.3298  0.2331
   68CHL1   C15 6156   4.808   3.783   4.262 -0.1618  0.1983 -0.0918
   68CHL1  H15A 6157   4.879   3.827   4.189  0.8419  1.7281  1.7460
   68CHL1  H15B 6158   4.717   3.847   4.265 -1.3744 -1.5018  0.7730
   68CHL1   C16 6159   4.878   3.763   4.397 -0.1898 -0.0494  0.2664
   68CHL1  H16A 6160   4.979   3.802   4.375  0.2621 -0.5294  1.4221
   68CHL1  H16B 6161   4.841   3.832   4.476  0.6648 -0.9574  1.5031
   68CHL1   C17 6162   4.881   3.608   4.424  0.3274 -0.8098  1.0766
   68CHL1   H17 6163   4.792   3.588   4.488 -0.6708  1.1357  0.4012
   68CHL1   C13 6164   4.861   3.545   4.280 -0.0615 -0.2110  0.9604
   68CHL1   C18 6165   4.992   3.560   4.193 -0.5483 -0.2792 -0.0899
   68CHL1  H18A 6166   5.058   3.473   4.217  1.5945  1.3620  0.2415
   68CHL1  H18B 6167   4.977   3.548   4.084  1.7973  1.8033 -0.7270
   68CHL1  H18C 6168   5.031   3.662   4.210 -0.7492  0.2923 -2.6894
   68CHL1   C12 6169   4.815   3.401   4.269  0.1326  0.0046 -0.0893
   68CHL1  H12A 6170   4.899   3.335   4.297  1.5301  1.6826 -0.1618
   68CHL1  H12B 6171   4.739   3.384   4.348 -1.0254  1.5712 -0.8059
   68CHL1   C11 6172   4.751   3.367   4.132 -0.3308 -0.6257  0.0238
   68CHL1  H11A 6173   4.836   3.362   4.060  0.4127 -1.2345  0.9150
   68CHL1  H11B 6174   4.703   3.267   4.136  0.2925 -0.8943  1.7898
   68CHL1    C9 6175   4.645   3.470   4.083 -0.5215  0.0752  0.0105
   68CHL1    H9 6176   4.551   3.470   4.143 -0.4504  2.0670  0.1990
   68CHL1   C10 6177   4.584   3.443   3.936  0.3047 -0.4914 -0.5777
   68CHL1   C19 6178   4.698   3.400   3.840 -0.1865  0.6751  0.1332
   68CHL1  H19A 6179   4.781   3.473   3.834 -1.0068  1.7736  1.6006
   68CHL1  H19B 6180   4.727   3.296   3.867  0.0943  0.4526 -0.9924
   68CHL1  H19C 6181   4.664   3.398   3.734  0.8723  1.5545 -0.2395
   68CHL1    C1 6182   4.480   3.327   3.942  0.1779  0.2917  0.3741
   68CHL1   H1A 6183   4.536   3.237   3.976 -1.0903 -0.0958  1.5187
   68CHL1   H1B 6184   4.403   3.356   4.017 -0.7663 -2.1503  0.4297
   68CHL1    C2 6185   4.402   3.295   3.820  0.1951 -0.2053  0.1372
   68CHL1   H2A 6186   4.320   3.225   3.846 -1.0545  1.6873  1.5905
   68CHL1   H2B 6187   4.458   3.257   3.732  0.4045  1.7335 -0.6181
   68CHL1   C20 6188   5.013   3.569   4.496 -0.0234 -0.8875 -0.3728
   68CHL1   H20 6189   5.097   3.587   4.425 -2.0559 -0.0971 -2.7252
   68CHL1   C21 6190   5.007   3.421   4.536  0.3160  0.3192  0.2159
   68CHL1  H21A 6191   5.053   3.359   4.456  2.2848  1.9482  0.0160
   68CHL1  H21B 6192   4.902   3.387   4.548 -0.0691  0.7000 -1.6923
   68CHL1  H21C 6193   5.073   3.396   4.621  0.0358 -3.3027 -0.4787
   68CHL1   C22 6194   5.034   3.666   4.614 -0.1471  0.0110 -0.3041
   68CHL1  H22A 6195   5.124   3.635   4.671 -0.0460 -0.2775 -0.6130
   68CHL1  H22B 6196   5.055   3.771   4.586 -0.1979  0.2222  0.4478
   68CHL1   C23 6197   4.918   3.669   4.716  0.6259 -0.3662 -0.0364
   68CHL1  H23A 6198   4.831   3.717   4.666  1.1186  1.3286  0.6634
   68CHL1  H23B 6199   4.900   3.563   4.745  0.5693 -1.0741 -2.4612
   68CHL1   C24 6200   4.955   3.748   4.844  0.0598 -0.3856 -0.0355
   68CHL1  H24A 6201   5.024   3.686   4.906  0.8538 -0.2800 -0.7851
   68CHL1  H24B 6202   5.007   3.837   4.801  0.0935  0.3626  1.4668
   68CHL1   C25 6203   4.842   3.801   4.932 -0.5569  0.0119  0.3412
   68CHL1   H25 6204   4.772   3.866   4.876  0.3985 -1.2812 -2.5141
   68CHL1   C26 6205   4.755   3.686   4.996  0.6569  0.3261  0.3179
   68CHL1  H26A 6206   4.688   3.629   4.927  1.0376  0.2744 -0.0127
   68CHL1  H26B 6207   4.824   3.615   5.045  2.8384  2.2431  0.1963
   68CHL1  H26C 6208   4.700   3.737   5.078  1.1700  1.8018 -0.2204
   68CHL1   C27 6209   4.905   3.890   5.043 -0.0961  0.2392 -0.1578
   68CHL1  H27A 6210   4.961   3.973   4.996 -2.2103  0.3663 -2.6226
   68CHL1  H27B 6211   4.818   3.932   5.098 -0.4312 -0.6506  0.0159
   68CHL1  H27C 6212   4.958   3.824   5.116 -0.7044  0.0069  0.0831
   69CHL1    C3 6213   3.775   0.248   3.580 -0.1536  0.5413 -1.0755
   69CHL1    H3 6214   3.788   0.356   3.602  1.6688  0.1892 -0.2728
   69CHL1    O3 6215   3.784   0.228   3.435  0.3296 -0.0341 -0.1623
   69CHL1   H3' 6216   3.800   0.313   3.393 -0.3706 -0.1668 -0.7269
   69CHL1    C4 6217   3.890   0.165   3.652 -0.2078 -0.2205 -0.5116
   69CHL1   H4A 6218   3.875   0.056   3.637 -1.2118 -0.5113  2.0434
   69CHL1   H4B 6219   3.989   0.185   3.607 -0.0094  0.0647  0.0367
   69CHL1    C5 6220   3.891   0.192   3.803  0.5322  0.1575 -0.6417
   69CHL1    C6 6221   4.005   0.234   3.868 -0.3282 -0.5173 -0.7931
   69CHL1    H6 6222   4.103   0.246   3.818 -0.5333 -0.1155 -1.1120
   69CHL1    C7 6223   4.003   0.255   4.021  0.4046  0.1428  0.2944
   69CHL1   H7A 6224   4.084   0.184   4.048  0.1421 -1.4019 -2.6222
   69CHL1   H7B 6225   4.008   0.365   4.038 -5.8975  0.9006 -0.4921
   69CHL1    C8 6226   3.874   0.203   4.092 -0.4676 -0.1633 -0.2932
   69CHL1    H8 6227   3.884   0.093   4.102 -1.7483 -0.5378 -2.3955
   69CHL1   C14 6228   3.868   0.261   4.231 -0.6424 -0.4533 -0.2799
   69CHL1   H14 6229   3.866   0.370   4.207  1.2142  0.1239  1.8539
   69CHL1   C15 6230   3.993   0.248   4.322  0.2375  0.3308  0.6592
   69CHL1  H15A 6231   4.027   0.142   4.327 -2.3972 -0.5863  0.9784
   69CHL1  H15B 6232   4.074   0.321   4.305 -0.2904  0.9645  0.8146
   69CHL1   C16 6233   3.930   0.290   4.457  0.7026 -0.0015  0.2568
   69CHL1  H16A 6234   3.949   0.206   4.526  0.4893 -0.1479  0.1368
   69CHL1  H16B 6235   3.993   0.373   4.498  2.8306 -0.8794 -1.0402
   69CHL1   C17 6236   3.779   0.307   4.437 -0.8307  0.7531  0.1467
   69CHL1   H17 6237   3.770   0.415   4.411  1.3556  0.7729 -0.7542
   69CHL1   C13 6238   3.743   0.228   4.312 -0.0753  0.0385 -0.1927
   69CHL1   C18 6239   3.733   0.078   4.343 -0.3809  0.5337  0.2299
   69CHL1  H18A 6240   3.633   0.061   4.389  0.2199  0.3786  1.5011
   69CHL1  H18B 6241   3.725   0.016   4.251 -0.6330 -2.7191  2.2841
   69CHL1  H18C 6242   3.822   0.043   4.399  1.1508  4.1319  0.3772
   69CHL1   C12 6243   3.615   0.271   4.228  0.1082  0.0833 -0.1922
   69CHL1  H12A 6244   3.521   0.236   4.276  0.3410  0.0266  0.2263
   69CHL1  H12B 6245   3.601   0.381   4.218 -2.9501 -0.3643 -2.6725
   69CHL1   C11 6246   3.618   0.210   4.079  0.3150 -0.5813 -0.2452
   69CHL1  H11A 6247   3.589   0.103   4.089 -1.6422 -0.2078 -1.5065
   69CHL1  H11B 6248   3.537   0.266   4.028  0.5621  1.2761  1.2875
   69CHL1    C9 6249   3.749   0.237   4.012  0.2825 -0.5592 -0.1516
   69CHL1    H9 6250   3.751   0.347   4.002 -1.3025 -0.3478  1.4300
   69CHL1   C10 6251   3.755   0.175   3.870  0.2828 -0.6260  0.6830
   69CHL1   C19 6252   3.723   0.026   3.869 -0.1754  0.5987  0.1410
   69CHL1  H19A 6253   3.613   0.024   3.876 -0.2959  0.3554 -1.5063
   69CHL1  H19B 6254   3.759  -0.030   3.780  1.5288  0.4004  0.9098
   69CHL1  H19C 6255   3.763  -0.019   3.963 -1.1823  0.6387  0.5992
   69CHL1    C1 6256   3.646   0.240   3.780  0.1472  0.2336 -0.8117
   69CHL1   H1A 6257   3.550   0.208   3.825 -0.2039  1.9051 -0.2886
   69CHL1   H1B 6258   3.643   0.351   3.794  0.5871  0.1631 -0.1121
   69CHL1    C2 6259   3.640   0.198   3.634  0.5642 -0.8670  0.4460
   69CHL1   H2A 6260   3.555   0.237   3.574 -0.0046 -2.5971  0.0613
   69CHL1   H2B 6261   3.624   0.089   3.619 -2.6156 -0.4671  0.1992
   69CHL1   C20 6262   3.704   0.284   4.567  0.0768 -0.7278  0.2110
   69CHL1   H20 6263   3.694   0.175   4.587  1.2106 -0.7181  0.9707
   69CHL1   C21 6264   3.560   0.353   4.549 -0.4224 -0.3793 -0.9654
   69CHL1  H21A 6265   3.563   0.462   4.525  1.5097 -0.1524  0.1573
   69CHL1  H21B 6266   3.503   0.351   4.644 -1.0525 -1.3679 -1.3425
   69CHL1  H21C 6267   3.506   0.289   4.476 -0.0057  0.4337 -2.0103
   69CHL1   C22 6268   3.768   0.345   4.697 -0.3239 -0.8893 -0.3828
   69CHL1  H22A 6269   3.873   0.317   4.718 -1.0289 -0.8160  4.1257
   69CHL1  H22B 6270   3.766   0.456   4.688 -1.2085 -0.9488 -1.0340
   69CHL1   C23 6271   3.703   0.300   4.824  0.1084  0.0217  0.2894
   69CHL1  H23A 6272   3.593   0.319   4.824  0.2905  1.2289  1.4566
   69CHL1  H23B 6273   3.719   0.190   4.827 -0.6690 -0.1045  0.0955
   69CHL1   C24 6274   3.761   0.347   4.955 -0.3489 -0.6571 -0.6037
   69CHL1  H24A 6275   3.870   0.330   4.964 -0.4732 -1.4336 -0.4507
   69CHL1  H24B 6276   3.730   0.454   4.955  1.0784 -0.2230 -0.4642
   69CHL1   C25 6277   3.702   0.287   5.088 -0.7711  0.4590  0.5287
   69CHL1   H25 6278   3.714   0.178   5.073  1.0710  0.9803 -2.9753
   69CHL1   C26 6279   3.785   0.340   5.206  0.5908  0.1060 -0.1591
   69CHL1  H26A 6280   3.768   0.449   5.210 -1.4975 -0.2186  1.4576
   69CHL1  H26B 6281   3.748   0.297   5.302  3.2094 -2.0847 -0.0145
   69CHL1  H26C 6282   3.895   0.321   5.208  0.5804  0.0814  1.6096
   69CHL1   C27 6283   3.555   0.315   5.116  0.0772 -0.6554  0.0739
   69CHL1  H27A 6284   3.526   0.269   5.212  0.7512 -1.6404 -0.1803
   69CHL1  H27B 6285   3.532   0.423   5.132  1.6687 -0.3217  0.3733
   69CHL1  H27C 6286   3.486   0.269   5.042  0.9795 -2.1901  0.1361
   70CHL1    C3 6287   5.900   6.106   3.620  0.0870  0.0461  0.1719
   70CHL1    H3 6288   5.812   6.165   3.653  1.2614  1.6037  0.6988
   70CHL1    O3 6289   5.911   6.113   3.484 -0.3548  0.4499  0.2747
   70CHL1   H3' 6290   5.846   6.051   3.450  0.0397 -0.9264  1.8375
   70CHL1    C4 6291   6.020   6.160   3.689  0.1600  0.2340 -0.3771
   70CHL1   H4A 6292   6.111   6.103   3.661  0.5125  1.0366 -0.8848
   70CHL1   H4B 6293   6.042   6.265   3.661 -0.0041  0.4538  0.2892
   70CHL1    C5 6294   5.998   6.148   3.839  0.3499 -0.4464  0.1033
   70CHL1    C6 6295   5.982   6.257   3.917 -0.6215  0.5942 -0.5833
   70CHL1    H6 6296   5.984   6.350   3.858 -2.0742  0.5653 -0.7217
   70CHL1    C7 6297   5.972   6.258   4.065  0.1273 -0.2196 -0.7403
   70CHL1   H7A 6298   6.024   6.342   4.116 -1.0232  0.5410 -0.7817
   70CHL1   H7B 6299   5.868   6.266   4.104  0.4757 -1.8756  0.6457
   70CHL1    C8 6300   6.029   6.121   4.119  0.9179 -0.3954  0.4049
   70CHL1    H8 6301   6.137   6.112   4.098  0.5008 -0.4779 -2.0271
   70CHL1   C14 6302   5.992   6.111   4.266 -0.1560 -0.1988  0.5345
   70CHL1   H14 6303   5.881   6.112   4.266 -0.2337  0.9855 -2.5669
   70CHL1   C15 6304   6.031   6.239   4.346  0.0949  0.1873 -0.1741
   70CHL1  H15A 6305   6.120   6.287   4.298 -0.1647  0.3713 -0.4746
   70CHL1  H15B 6306   5.938   6.298   4.353 -0.3642 -0.6796  1.6544
   70CHL1   C16 6307   6.040   6.189   4.489  0.1566  0.5135 -0.4790
   70CHL1  H16A 6308   6.135   6.220   4.538  0.6389  0.6370 -1.4760
   70CHL1  H16B 6309   5.962   6.235   4.554  0.7257 -0.2984  0.8328
   70CHL1   C17 6310   6.013   6.032   4.485  0.5378 -0.5916 -0.4399
   70CHL1   H17 6311   5.905   6.024   4.507  1.2844 -1.2833  3.8163
   70CHL1   C13 6312   6.038   5.991   4.339  0.5325 -0.0499  0.1257
   70CHL1   C18 6313   6.186   5.975   4.328  0.4568  0.2692  0.9623
   70CHL1  H18A 6314   6.224   5.979   4.223  0.8105 -0.7820  1.0358
   70CHL1  H18B 6315   6.251   6.048   4.379  1.0518  2.0290 -2.0393
   70CHL1  H18C 6316   6.221   5.879   4.371  1.2429 -0.2039 -0.6528
   70CHL1   C12 6317   5.969   5.869   4.279 -0.2016  0.5312  0.4005
   70CHL1  H12A 6318   6.015   5.777   4.320  2.7105  1.7901  0.1430
   70CHL1  H12B 6319   5.861   5.875   4.307  0.1507 -1.6353  2.5168
   70CHL1   C11 6320   5.991   5.870   4.120  0.6117 -0.2650  0.0277
   70CHL1  H11A 6321   6.097   5.838   4.122  0.6723 -0.0490  0.3317
   70CHL1  H11B 6322   5.928   5.793   4.071 -2.2501  2.1795 -0.4567
   70CHL1    C9 6323   5.956   6.007   4.046 -0.0797 -1.0325 -0.3190
   70CHL1    H9 6324   5.846   6.027   4.051  0.3473  2.2845 -1.5713
   70CHL1   C10 6325   5.987   6.008   3.897 -0.0312 -0.4487 -0.5345
   70CHL1   C19 6326   6.125   5.938   3.877 -0.1562 -0.8399  0.5231
   70CHL1  H19A 6327   6.212   5.990   3.923 -1.3846  2.1542 -0.3223
   70CHL1  H19B 6328   6.105   5.834   3.911 -1.8467  0.0265  2.4032
   70CHL1  H19C 6329   6.159   5.940   3.771 -5.3589  1.1992 -1.4188
   70CHL1    C1 6330   5.866   5.941   3.819  0.8113 -0.5826 -0.2668
   70CHL1   H1A 6331   5.852   5.837   3.856  0.8625  0.1411  1.8700
   70CHL1   H1B 6332   5.776   6.001   3.843  0.3817 -1.8545  1.4980
   70CHL1    C2 6333   5.892   5.959   3.664  0.3893  0.5400 -1.0185
   70CHL1   H2A 6334   5.805   5.908   3.617 -0.3997  1.2860 -0.4129
   70CHL1   H2B 6335   5.983   5.901   3.639 -0.8069 -2.3526  0.8148
   70CHL1   C20 6336   6.077   5.949   4.596 -0.3659  0.5916 -0.4430
   70CHL1   H20 6337   6.183   5.926   4.569  0.1315  3.3642 -1.1806
   70CHL1   C21 6338   5.985   5.825   4.618  0.0641 -0.1947  0.0327
   70CHL1  H21A 6339   6.030   5.753   4.691 -2.5911 -0.7168  1.2555
   70CHL1  H21B 6340   5.991   5.766   4.524 -0.6360  0.8733 -0.6952
   70CHL1  H21C 6341   5.883   5.848   4.654 -0.7653 -2.0220 -1.0469
   70CHL1   C22 6342   6.080   6.030   4.730 -0.0104  0.0954 -1.4765
   70CHL1  H22A 6343   6.145   6.120   4.725  0.1230  0.2194  1.2639
   70CHL1  H22B 6344   5.980   6.071   4.755  0.3307  0.4489 -0.6628
   70CHL1   C23 6345   6.118   5.956   4.863  0.1791  0.3405 -0.2448
   70CHL1  H23A 6346   6.061   5.863   4.882  0.6085  0.0188 -0.5022
   70CHL1  H23B 6347   6.225   5.925   4.871 -0.3778 -1.7277 -0.2513
   70CHL1   C24 6348   6.080   6.054   4.984  0.1900  0.1409  0.0232
   70CHL1  H24A 6349   6.130   6.152   4.972  1.9501 -0.8629 -1.4055
   70CHL1  H24B 6350   5.974   6.079   4.963 -0.4220 -2.3333 -0.2047
   70CHL1   C25 6351   6.098   6.005   5.132  0.8033 -0.3473  0.6049
   70CHL1   H25 6352   6.190   5.944   5.127  0.4925 -0.7521 -0.6058
   70CHL1   C26 6353   6.113   6.130   5.222 -0.4237  0.1711 -0.9317
   70CHL1  H26A 6354   6.021   6.192   5.214 -0.0590  0.8452 -0.0947
   70CHL1  H26B 6355   6.118   6.089   5.325  0.4444  0.1481 -0.9807
   70CHL1  H26C 6356   6.201   6.194   5.200 -0.2896  0.0309 -0.8053
   70CHL1   C27 6357   5.984   5.917   5.175 -0.7867  0.2754  0.1514
   70CHL1  H27A 6358   6.020   5.872   5.270 -4.5043 -2.6719  0.4238
   70CHL1  H27B 6359   5.887   5.964   5.202 -1.8723 -0.7374 -1.7543
   70CHL1  H27C 6360   5.965   5.835   5.103  2.7437 -0.7445  0.2303
   71CHL1    C3 6361   2.236   3.192   3.502 -0.9128  0.7779  0.3373
   71CHL1    H3 6362   2.223   3.301   3.513  0.8115  0.8509  2.2971
   71CHL1    O3 6363   2.211   3.142   3.368 -0.0170  0.3262 -0.1259
   71CHL1   H3' 6364   2.297   3.145   3.325 -0.1633  1.7588 -0.3804
   71CHL1    C4 6365   2.383   3.155   3.546 -0.2687  0.2351 -0.6833
   71CHL1   H4A 6366   2.385   3.045   3.532 -2.3710  0.2913 -1.7261
   71CHL1   H4B 6367   2.458   3.197   3.476 -0.4834  0.7370 -0.6120
   71CHL1    C5 6368   2.411   3.182   3.695  0.9431  0.1265  0.3689
   71CHL1    C6 6369   2.501   3.274   3.728  0.3324  0.5305  0.3289
   71CHL1    H6 6370   2.579   3.309   3.660  1.1758 -0.2969  0.8481
   71CHL1    C7 6371   2.508   3.315   3.871  0.3440  0.7215  0.0861
   71CHL1   H7A 6372   2.614   3.337   3.893 -0.1910  2.5551  1.0781
   71CHL1   H7B 6373   2.457   3.412   3.890 -1.1659 -0.3183  1.6784
   71CHL1    C8 6374   2.464   3.211   3.978  0.0128  0.2685  0.0247
   71CHL1    H8 6375   2.535   3.126   3.968 -0.2129  0.1718 -0.8154
   71CHL1   C14 6376   2.462   3.273   4.121 -0.1197 -0.5626 -0.0599
   71CHL1   H14 6377   2.390   3.357   4.125  0.6844  0.2648 -1.7846
   71CHL1   C15 6378   2.591   3.347   4.165 -1.2513 -0.1289 -0.0531
   71CHL1  H15A 6379   2.676   3.279   4.146 -1.2903  0.3449 -2.1054
   71CHL1  H15B 6380   2.616   3.439   4.108  0.2329 -0.9812 -0.8282
   71CHL1   C16 6381   2.568   3.377   4.322  0.3977  0.3337 -0.2964
   71CHL1  H16A 6382   2.653   3.333   4.379  1.4311  1.4184 -0.9227
   71CHL1  H16B 6383   2.544   3.484   4.340 -1.6899 -0.1187 -0.1643
   71CHL1   C17 6384   2.444   3.289   4.353 -0.2243 -0.4246  0.4624
   71CHL1   H17 6385   2.349   3.346   4.352 -0.5468 -0.8668 -2.2316
   71CHL1   C13 6386   2.423   3.190   4.231  0.1319  0.9442 -0.4649
   71CHL1   C18 6387   2.511   3.063   4.249  0.5955 -0.9043  0.0369
   71CHL1  H18A 6388   2.507   3.003   4.155 -0.8071 -0.3816 -0.2715
   71CHL1  H18B 6389   2.613   3.094   4.280  0.1306  1.2395 -0.4085
   71CHL1  H18C 6390   2.467   3.011   4.336 -1.3159  1.3690  0.5540
   71CHL1   C12 6391   2.279   3.157   4.198  0.6764  0.5055 -0.6425
   71CHL1  H12A 6392   2.241   3.083   4.271 -1.0559  0.5626 -1.4421
   71CHL1  H12B 6393   2.224   3.253   4.209  0.0464 -0.0516  1.7522
   71CHL1   C11 6394   2.262   3.093   4.058 -0.1423 -0.1758 -0.7580
   71CHL1  H11A 6395   2.300   2.988   4.055 -0.2405 -0.2240 -0.3201
   71CHL1  H11B 6396   2.154   3.094   4.031 -0.4735  1.0289  0.5043
   71CHL1    C9 6397   2.326   3.173   3.936 -0.0985  0.0507 -0.2799
   71CHL1    H9 6398   2.265   3.266   3.946  0.5702  0.2319  3.4664
   71CHL1   C10 6399   2.312   3.112   3.796 -0.0296  0.4679 -0.6418
   71CHL1   C19 6400   2.341   2.958   3.793  0.0832 -0.0822 -0.5879
   71CHL1  H19A 6401   2.311   2.921   3.692 -2.6518 -0.7245  0.3537
   71CHL1  H19B 6402   2.448   2.939   3.815  0.6851  3.8016  0.5114
   71CHL1  H19C 6403   2.276   2.904   3.865  2.8781 -1.3866  1.1089
   71CHL1    C1 6404   2.169   3.147   3.747 -0.8426  0.4828 -0.2255
   71CHL1   H1A 6405   2.094   3.081   3.796  0.8299 -1.3282 -0.0242
   71CHL1   H1B 6406   2.146   3.252   3.777 -0.4294  0.1073  1.5111
   71CHL1    C2 6407   2.135   3.123   3.594 -0.1065  0.1754  0.4911
   71CHL1   H2A 6408   2.032   3.158   3.572 -0.1411 -1.3803 -2.2783
   71CHL1   H2B 6409   2.136   3.013   3.579 -0.1469  0.4924 -2.4708
   71CHL1   C20 6410   2.446   3.228   4.502  0.4249 -0.0995  0.0788
   71CHL1   H20 6411   2.498   3.129   4.508 -0.1579 -0.3455  1.4524
   71CHL1   C21 6412   2.301   3.176   4.539  0.3466  0.1013  0.0615
   71CHL1  H21A 6413   2.223   3.254   4.528  0.8116  0.5437 -0.1630
   71CHL1  H21B 6414   2.306   3.136   4.643 -0.4049  0.0456  0.0811
   71CHL1  H21C 6415   2.283   3.091   4.471  1.4208  0.1745 -0.3372
   71CHL1   C22 6416   2.514   3.309   4.609 -0.5575  0.7362 -0.6212
   71CHL1  H22A 6417   2.623   3.309   4.584 -1.0412  0.3933 -2.9683
   71CHL1  H22B 6418   2.476   3.413   4.603  0.6738  1.4490  2.2456
   71CHL1   C23 6419   2.495   3.266   4.758 -0.5999  0.3847  0.8708
   71CHL1  H23A 6420   2.396   3.300   4.794 -0.2420  2.0003  0.3873
   71CHL1  H23B 6421   2.513   3.157   4.771 -3.2143 -0.2207  0.0032
   71CHL1   C24 6422   2.604   3.328   4.849 -0.2290  0.0782 -0.6359
   71CHL1  H24A 6423   2.707   3.296   4.820  0.2853 -0.1706  1.3006
   71CHL1  H24B 6424   2.607   3.439   4.851  0.7170  0.1587  3.3752
   71CHL1   C25 6425   2.596   3.295   4.999  0.4392 -0.8971 -0.1027
   71CHL1   H25 6426   2.616   3.189   5.024  1.4737 -1.0380 -1.4328
   71CHL1   C26 6427   2.702   3.377   5.072 -0.5743  0.2700  0.1464
   71CHL1  H26A 6428   2.691   3.484   5.047  1.2455  0.5576  0.4966
   71CHL1  H26B 6429   2.705   3.363   5.183 -1.1224  2.4587  0.4797
   71CHL1  H26C 6430   2.792   3.326   5.032 -0.2258  0.0180  1.2173
   71CHL1   C27 6431   2.464   3.342   5.066  0.0871  0.2618 -0.1214
   71CHL1  H27A 6432   2.477   3.359   5.175  0.8116  0.2794 -0.2096
   71CHL1  H27B 6433   2.426   3.437   5.022  2.3585  1.9174  1.3124
   71CHL1  H27C 6434   2.384   3.271   5.035  0.2510  0.7841 -1.8229
   72CHL1    C3 6435   4.007   1.986   3.713 -0.1671  1.0643  0.2159
   72CHL1    H3 6436   3.924   2.007   3.784  1.1562 -0.1044  2.2111
   72CHL1    O3 6437   3.962   1.992   3.578  0.1376 -0.1393 -0.1121
   72CHL1   H3' 6438   4.028   1.953   3.520 -0.2469  0.8927 -1.2952
   72CHL1    C4 6439   4.113   2.091   3.738  0.2061 -0.7233  0.2131
   72CHL1   H4A 6440   4.201   2.069   3.675  0.1040 -1.8353  0.4451
   72CHL1   H4B 6441   4.065   2.187   3.709  1.0825 -0.5339 -0.6670
   72CHL1    C5 6442   4.150   2.071   3.886 -0.0839 -0.3258 -0.6481
   72CHL1    C6 6443   4.142   2.174   3.968  0.1257 -0.9259 -0.8513
   72CHL1    H6 6444   4.114   2.271   3.924 -0.7889  0.2022  1.9958
   72CHL1    C7 6445   4.197   2.191   4.110  0.0344  0.1072  0.4964
   72CHL1   H7A 6446   4.264   2.279   4.104 -1.0736  0.9750  0.5292
   72CHL1   H7B 6447   4.110   2.206   4.178 -0.6918 -0.9130 -0.1825
   72CHL1    C8 6448   4.276   2.067   4.148 -0.2180  0.3848  0.2339
   72CHL1    H8 6449   4.384   2.070   4.121 -0.5248 -0.7384 -1.3144
   72CHL1   C14 6450   4.275   2.050   4.302 -0.0961 -0.5880 -0.9069
   72CHL1   H14 6451   4.168   2.027   4.322  0.2852 -0.4709  1.5036
   72CHL1   C15 6452   4.318   2.177   4.381  0.8096 -0.0374  0.5659
   72CHL1  H15A 6453   4.403   2.232   4.338 -0.2269  1.8143  0.7967
   72CHL1  H15B 6454   4.233   2.248   4.379 -0.6885 -1.7236  0.9929
   72CHL1   C16 6455   4.357   2.114   4.517  0.1167 -0.2753 -0.2101
   72CHL1  H16A 6456   4.462   2.137   4.545 -0.0623  0.0991  0.1650
   72CHL1  H16B 6457   4.285   2.156   4.591  1.3265  2.8881 -0.6782
   72CHL1   C17 6458   4.334   1.963   4.504 -0.5567  0.1590  0.0373
   72CHL1   H17 6459   4.227   1.941   4.526 -0.1806 -1.1300  0.6714
   72CHL1   C13 6460   4.353   1.928   4.356 -0.2963 -0.6509 -0.5235
   72CHL1   C18 6461   4.502   1.937   4.314  0.3451 -0.6051 -0.1365
   72CHL1  H18A 6462   4.517   1.925   4.204 -1.2059  1.2883 -0.6066
   72CHL1  H18B 6463   4.539   2.040   4.336  1.5591 -0.8456 -0.9455
   72CHL1  H18C 6464   4.560   1.861   4.369  0.0158 -0.8789 -0.1634
   72CHL1   C12 6465   4.295   1.801   4.303  0.5949 -0.2071  0.3914
   72CHL1  H12A 6466   4.353   1.708   4.326 -1.0957 -1.4228 -0.0856
   72CHL1  H12B 6467   4.195   1.793   4.350 -0.1641 -1.3771 -1.3090
   72CHL1   C11 6468   4.283   1.801   4.142  0.0350 -0.1582 -0.0653
   72CHL1  H11A 6469   4.387   1.784   4.107  0.5182  1.4448  0.5033
   72CHL1  H11B 6470   4.221   1.713   4.115 -1.1785  0.1753  1.5140
   72CHL1    C9 6471   4.219   1.934   4.088  0.0681  0.0813  0.0429
   72CHL1    H9 6472   4.116   1.931   4.129  0.9262  0.0147  2.3360
   72CHL1   C10 6473   4.201   1.937   3.934 -0.2596 -0.2418 -0.2001
   72CHL1   C19 6474   4.342   1.905   3.868  0.4983  0.4897  0.3229
   72CHL1  H19A 6475   4.382   1.808   3.904 -1.9130 -0.7495 -0.1324
   72CHL1  H19B 6476   4.334   1.893   3.758  0.9373 -1.8910  0.5108
   72CHL1  H19C 6477   4.414   1.985   3.895  0.2415  0.7160  0.3494
   72CHL1    C1 6478   4.101   1.826   3.890 -0.5348  0.9329 -0.2591
   72CHL1   H1A 6479   4.152   1.731   3.917  0.6445  2.3136  2.8488
   72CHL1   H1B 6480   4.014   1.829   3.959  0.9481 -1.2095  1.8866
   72CHL1    C2 6481   4.065   1.840   3.740 -0.0118  0.6118 -0.2891
   72CHL1   H2A 6482   3.985   1.770   3.707  1.3826 -0.0656 -2.3914
   72CHL1   H2B 6483   4.151   1.818   3.673  0.8198  2.6114  0.0408
   72CHL1   C20 6484   4.402   1.876   4.612  0.1091 -0.0066  0.6120
   72CHL1   H20 6485   4.503   1.849   4.575  0.2144 -0.1258  0.9827
   72CHL1   C21 6486   4.320   1.752   4.637 -0.1033  0.0782 -0.5183
   72CHL1  H21A 6487   4.360   1.673   4.704 -2.6143  0.1492  1.2292
   72CHL1  H21B 6488   4.316   1.691   4.544  4.0300  1.2346 -1.6684
   72CHL1  H21C 6489   4.216   1.764   4.674  0.7882  0.5489  2.1015
   72CHL1   C22 6490   4.427   1.959   4.743 -0.9371 -0.3003  0.2202
   72CHL1  H22A 6491   4.490   2.047   4.719 -0.5505 -0.3592  0.9989
   72CHL1  H22B 6492   4.329   1.996   4.780 -1.3005  0.9063 -1.7808
   72CHL1   C23 6493   4.493   1.868   4.847  0.7632  0.1298  0.2212
   72CHL1  H23A 6494   4.420   1.786   4.869 -1.2672  1.1005 -2.3829
   72CHL1  H23B 6495   4.587   1.820   4.809  2.2609  1.2049  2.4043
   72CHL1   C24 6496   4.515   1.947   4.980 -0.2126 -0.4433 -0.8599
   72CHL1  H24A 6497   4.544   2.050   4.952  0.1150  0.1620  1.5436
   72CHL1  H24B 6498   4.416   1.964   5.027 -0.6731 -1.7031 -1.2984
   72CHL1   C25 6499   4.611   1.885   5.077 -0.0415  0.2929 -0.0529
   72CHL1   H25 6500   4.582   1.779   5.093 -0.1199 -0.0709 -2.3065
   72CHL1   C26 6501   4.752   1.879   5.028 -0.6844  0.0710 -0.1033
   72CHL1  H26A 6502   4.743   1.819   4.935 -1.6978  0.5313 -0.3151
   72CHL1  H26B 6503   4.779   1.985   5.010 -2.3463  0.4145 -0.7741
   72CHL1  H26C 6504   4.808   1.843   5.117 -0.9018  1.9973  0.8663
   72CHL1   C27 6505   4.602   1.969   5.206 -0.0239 -0.3938 -0.4892
   72CHL1  H27A 6506   4.637   2.074   5.195  1.5733 -0.8904 -0.4751
   72CHL1  H27B 6507   4.499   1.982   5.244  0.5906  0.1981  1.0287
   72CHL1  H27C 6508   4.664   1.930   5.290 -1.7466  0.6590  1.3498
   73CHL1    C3 6509   3.186   2.946   3.703 -0.2481 -0.2677 -0.0003
   73CHL1    H3 6510   3.084   2.980   3.732 -0.6843 -1.2947 -0.2998
   73CHL1    O3 6511   3.195   2.952   3.563  0.1207  0.0995 -0.4989
   73CHL1   H3' 6512   3.156   2.872   3.528  0.3192  0.3913 -1.4174
   73CHL1    C4 6513   3.291   3.043   3.764 -0.6669 -0.0425 -0.2238
   73CHL1   H4A 6514   3.389   3.005   3.729 -0.9581 -3.9067  2.5865
   73CHL1   H4B 6515   3.287   3.149   3.729  1.9311  0.3233  0.3959
   73CHL1    C5 6516   3.301   3.031   3.921  0.2478 -0.0460 -0.4583
   73CHL1    C6 6517   3.287   3.143   4.002  0.0381  0.9534  0.6388
   73CHL1    H6 6518   3.279   3.244   3.960 -2.1492  0.3426 -0.5497
   73CHL1    C7 6519   3.300   3.135   4.148 -0.2821 -0.7989 -0.0225
   73CHL1   H7A 6520   3.370   3.213   4.183 -2.2896  0.2334  1.9795
   73CHL1   H7B 6521   3.198   3.152   4.189 -0.2218 -0.3475 -0.0572
   73CHL1    C8 6522   3.342   3.002   4.203  0.1550 -0.0019  0.0884
   73CHL1    H8 6523   3.453   2.994   4.197 -0.0079 -1.5533 -2.1197
   73CHL1   C14 6524   3.314   2.991   4.355 -0.4173 -0.1186 -0.0032
   73CHL1   H14 6525   3.204   2.984   4.366 -0.2844 -0.5589  1.3085
   73CHL1   C15 6526   3.352   3.111   4.450  0.2018  0.2040 -0.3676
   73CHL1  H15A 6527   3.460   3.135   4.444  0.0587  0.7577 -0.8939
   73CHL1  H15B 6528   3.294   3.206   4.437  1.0810  0.8173  0.1196
   73CHL1   C16 6529   3.343   3.041   4.595  0.0226 -0.3064  1.1231
   73CHL1  H16A 6530   3.436   3.065   4.651  0.0539 -0.6325  1.2080
   73CHL1  H16B 6531   3.253   3.070   4.653 -0.0113 -0.3652  1.0998
   73CHL1   C17 6532   3.330   2.888   4.572 -0.1634 -0.3208  0.2415
   73CHL1   H17 6533   3.219   2.879   4.573 -0.4534  2.4344  0.0500
   73CHL1   C13 6534   3.372   2.864   4.430  0.3003  0.8133  0.4224
   73CHL1   C18 6535   3.522   2.859   4.417  0.2398  0.0727  0.1217
   73CHL1  H18A 6536   3.549   2.756   4.450 -1.6562 -0.4363  0.2592
   73CHL1  H18B 6537   3.567   2.873   4.317 -1.4517  1.0331 -0.5542
   73CHL1  H18C 6538   3.573   2.928   4.488 -0.2774 -0.6131  1.1870
   73CHL1   C12 6539   3.298   2.740   4.352  0.0162 -0.5055 -0.1800
   73CHL1  H12A 6540   3.337   2.643   4.389  0.5574 -1.0469 -2.0740
   73CHL1  H12B 6541   3.193   2.752   4.388  0.3748  0.4891  0.6060
   73CHL1   C11 6542   3.317   2.750   4.196  0.4138  0.0368 -0.9092
   73CHL1  H11A 6543   3.425   2.733   4.173  0.2898 -3.1369  0.3513
   73CHL1  H11B 6544   3.260   2.665   4.152  0.9693 -1.0453  0.3788
   73CHL1    C9 6545   3.285   2.885   4.131  0.4198  0.0226 -0.0802
   73CHL1    H9 6546   3.175   2.897   4.148  0.6155 -0.8916  2.3090
   73CHL1   C10 6547   3.311   2.888   3.980 -0.2587  0.8312  0.5934
   73CHL1   C19 6548   3.453   2.845   3.945  0.5467 -0.5794 -0.3509
   73CHL1  H19A 6549   3.530   2.912   3.989  0.7568  0.6090 -2.3876
   73CHL1  H19B 6550   3.459   2.736   3.962  2.1007 -0.5402 -0.4906
   73CHL1  H19C 6551   3.475   2.853   3.837 -1.7713 -2.3416 -1.0315
   73CHL1    C1 6552   3.212   2.788   3.905  0.1572  0.5643  0.3368
   73CHL1   H1A 6553   3.222   2.679   3.928  0.0741  0.4304 -0.2403
   73CHL1   H1B 6554   3.107   2.813   3.932 -0.6319 -0.8629 -1.2293
   73CHL1    C2 6555   3.216   2.802   3.754  0.3440  0.5477 -0.2640
   73CHL1   H2A 6556   3.137   2.742   3.705  0.0633  1.5762 -1.1062
   73CHL1   H2B 6557   3.309   2.760   3.709 -0.9311 -2.2154 -0.4948
   73CHL1   C20 6558   3.380   2.794   4.684 -0.2285 -0.0786  0.5618
   73CHL1   H20 6559   3.491   2.803   4.689  0.0376 -2.0786 -0.9087
   73CHL1   C21 6560   3.347   2.649   4.655 -0.4816 -0.3774  0.0579
   73CHL1  H21A 6561   3.254   2.644   4.594  1.0837  1.2548 -2.6758
   73CHL1  H21B 6562   3.352   2.589   4.748  1.6788  0.4671  0.5558
   73CHL1  H21C 6563   3.420   2.595   4.591 -1.6800 -1.8488 -0.1116
   73CHL1   C22 6564   3.332   2.829   4.825  0.0285 -0.8411 -0.2591
   73CHL1  H22A 6565   3.331   2.939   4.841  0.5279 -0.9816  0.7830
   73CHL1  H22B 6566   3.231   2.786   4.846  0.5835 -0.2445  4.9387
   73CHL1   C23 6567   3.423   2.785   4.943 -0.5566 -0.2101 -0.0316
   73CHL1  H23A 6568   3.368   2.793   5.039 -0.6670 -0.2361 -0.0918
   73CHL1  H23B 6569   3.438   2.676   4.925 -5.0686 -1.4700  2.2791
   73CHL1   C24 6570   3.559   2.853   4.961  0.5113 -0.0615 -0.0371
   73CHL1  H24A 6571   3.607   2.812   5.052 -0.6572 -1.5227 -0.0339
   73CHL1  H24B 6572   3.612   2.842   4.864  0.2211 -2.3152  0.0007
   73CHL1   C25 6573   3.549   3.005   4.985 -1.2742 -0.2863  0.0974
   73CHL1   H25 6574   3.478   3.050   4.913 -1.1897 -0.0864  0.1381
   73CHL1   C26 6575   3.500   3.034   5.120 -0.4299  0.4198  0.3453
   73CHL1  H26A 6576   3.577   3.002   5.194  3.3747  1.7749 -2.6681
   73CHL1  H26B 6577   3.492   3.144   5.134 -0.9697  0.3588  0.5475
   73CHL1  H26C 6578   3.398   2.996   5.142 -1.1800  0.6908 -2.3766
   73CHL1   C27 6579   3.686   3.068   4.965  0.1090 -0.1420 -0.0266
   73CHL1  H27A 6580   3.711   3.080   4.858  1.3814 -1.9341  0.0166
   73CHL1  H27B 6581   3.696   3.170   5.007  1.8122 -0.4361  0.3342
   73CHL1  H27C 6582   3.762   2.997   5.003  0.3515  0.2581  0.2434
   74CHL1    C3 6583   4.010   3.782   3.966 -0.2090 -0.1070  0.8823
   74CHL1    H3 6584   3.983   3.887   3.989 -2.1109 -0.5492  0.8128
   74CHL1    O3 6585   3.950   3.748   3.845  0.1363  0.1380 -0.4849
   74CHL1   H3' 6586   3.992   3.663   3.830  1.4078  0.9456 -1.8456
   74CHL1    C4 6587   4.161   3.774   3.951 -0.3200  0.4803 -0.2351
   74CHL1   H4A 6588   4.196   3.675   3.914  0.9655  1.1158 -0.7745
   74CHL1   H4B 6589   4.194   3.849   3.876 -1.2198 -0.0867 -1.2343
   74CHL1    C5 6590   4.219   3.816   4.079 -0.3408  0.2411 -0.5728
   74CHL1    C6 6591   4.296   3.926   4.096  0.1950  0.4675  0.1805
   74CHL1    H6 6592   4.316   3.998   4.015 -2.0801  2.6378  1.4357
   74CHL1    C7 6593   4.382   3.958   4.213 -0.1685 -1.0835  0.2239
   74CHL1   H7A 6594   4.488   3.960   4.180  0.0378  0.6049  0.9087
   74CHL1   H7B 6595   4.355   4.057   4.256 -1.0200 -2.1405  2.2667
   74CHL1    C8 6596   4.374   3.854   4.324  0.0553  0.2988 -0.9250
   74CHL1    H8 6597   4.449   3.773   4.307 -0.6101 -1.0039  1.8103
   74CHL1   C14 6598   4.407   3.919   4.459 -0.2929  0.4659 -0.1460
   74CHL1   H14 6599   4.322   3.988   4.475  1.0937  2.0744  0.5379
   74CHL1   C15 6600   4.532   4.009   4.473 -0.2847  0.0447 -0.4989
   74CHL1  H15A 6601   4.624   3.949   4.458 -1.6248 -2.0665 -0.6772
   74CHL1  H15B 6602   4.523   4.106   4.421 -1.9499 -0.2132 -0.7356
   74CHL1   C16 6603   4.532   4.025   4.630 -0.0517 -0.5758 -0.2969
   74CHL1  H16A 6604   4.635   4.012   4.671 -0.1928  2.4945  1.3313
   74CHL1  H16B 6605   4.508   4.132   4.650  1.5182  0.0534 -1.5048
   74CHL1   C17 6606   4.429   3.929   4.696 -0.1824 -0.5093  0.9795
   74CHL1   H17 6607   4.336   3.988   4.707 -0.3453 -0.4644 -0.4622
   74CHL1   C13 6608   4.399   3.826   4.582 -0.0997 -0.2593 -0.6425
   74CHL1   C18 6609   4.518   3.724   4.581  0.4111 -0.5740  0.6837
   74CHL1  H18A 6610   4.617   3.773   4.568 -0.0300  0.1881  0.1696
   74CHL1  H18B 6611   4.507   3.665   4.674  1.0787 -3.3541 -0.8618
   74CHL1  H18C 6612   4.521   3.655   4.493  1.9666 -0.2903  0.4798
   74CHL1   C12 6613   4.259   3.760   4.589 -0.2570  0.5273 -0.0085
   74CHL1  H12A 6614   4.248   3.686   4.672 -1.6009  1.4008  0.6315
   74CHL1  H12B 6615   4.189   3.845   4.602  0.0643  0.6726  0.8299
   74CHL1   C11 6616   4.226   3.693   4.457 -0.3871 -0.3251  0.3123
   74CHL1  H11A 6617   4.304   3.614   4.447 -1.4319 -1.4045  0.4327
   74CHL1  H11B 6618   4.128   3.644   4.473  0.8644 -2.9798  0.3996
   74CHL1    C9 6619   4.228   3.792   4.330 -0.0436  0.1743 -0.2666
   74CHL1    H9 6620   4.156   3.874   4.352  0.9684  1.4396 -1.4426
   74CHL1   C10 6621   4.176   3.725   4.198  0.3409  0.3996  0.3258
   74CHL1   C19 6622   4.237   3.584   4.183  0.0097 -0.1820  0.1437
   74CHL1  H19A 6623   4.226   3.555   4.076  2.0936  0.5872 -0.3320
   74CHL1  H19B 6624   4.346   3.578   4.204  0.5873  2.0169 -1.8990
   74CHL1  H19C 6625   4.185   3.514   4.252  0.0952 -0.3891 -0.0024
   74CHL1    C1 6626   4.020   3.709   4.208  0.0637 -0.4990 -1.1178
   74CHL1   H1A 6627   4.002   3.623   4.275 -1.4412  1.0665  0.5958
   74CHL1   H1B 6628   3.975   3.806   4.241  0.4871 -0.5855 -0.2882
   74CHL1    C2 6629   3.965   3.681   4.069  0.1376  0.5292 -0.0088
   74CHL1   H2A 6630   3.854   3.680   4.075  0.0586 -3.1082 -0.0738
   74CHL1   H2B 6631   4.000   3.580   4.038 -1.9161 -0.4746  0.7220
   74CHL1   C20 6632   4.469   3.878   4.836  0.1050 -0.3431 -0.2295
   74CHL1   H20 6633   4.561   3.816   4.829 -1.2618 -2.6022  0.7426
   74CHL1   C21 6634   4.366   3.789   4.908 -0.7706 -0.2804  0.6992
   74CHL1  H21A 6635   4.332   3.696   4.858 -2.3842  0.4213  0.4127
   74CHL1  H21B 6636   4.270   3.844   4.924 -1.4539 -1.8737  2.3786
   74CHL1  H21C 6637   4.389   3.769   5.015 -2.1183 -1.6792  0.7561
   74CHL1   C22 6638   4.504   4.001   4.927  0.2754 -0.0702 -0.3613
   74CHL1  H22A 6639   4.554   3.967   5.020 -1.6346 -1.0527  0.3751
   74CHL1  H22B 6640   4.576   4.068   4.875  0.0278 -0.0132 -0.6373
   74CHL1   C23 6641   4.386   4.099   4.956  0.2020 -0.0076 -0.1456
   74CHL1  H23A 6642   4.355   4.148   4.861 -2.9121  2.5657  1.9693
   74CHL1  H23B 6643   4.304   4.033   4.993 -1.6482  1.0986 -2.0190
   74CHL1   C24 6644   4.409   4.211   5.058 -0.5675 -0.1192 -0.4652
   74CHL1  H24A 6645   4.413   4.171   5.162 -2.1777 -2.1782 -1.1160
   74CHL1  H24B 6646   4.507   4.261   5.041 -0.3454  0.5073  2.2346
   74CHL1   C25 6647   4.306   4.317   5.058  0.3136 -0.1809 -0.3612
   74CHL1   H25 6648   4.310   4.360   4.955  0.6206 -1.8027 -1.0479
   74CHL1   C26 6649   4.170   4.260   5.086 -0.4096 -0.8345  0.1457
   74CHL1  H26A 6650   4.091   4.331   5.120  0.6593  0.6632 -0.3989
   74CHL1  H26B 6651   4.141   4.205   4.994  2.1216 -2.1379  0.0333
   74CHL1  H26C 6652   4.175   4.185   5.168 -0.3517 -2.2910 -1.1408
   74CHL1   C27 6653   4.348   4.428   5.161 -0.1558 -0.0425  0.2494
   74CHL1  H27A 6654   4.453   4.458   5.140 -1.3629  2.9422 -2.3789
   74CHL1  H27B 6655   4.290   4.522   5.148  1.6854  1.3204  1.3759
   74CHL1  H27C 6656   4.335   4.385   5.263  1.5625  2.7891  1.7982
   75CHL1    C3 6657   5.128   0.741   3.806 -0.8445 -0.6176  0.0306
   75CHL1    H3 6658   5.124   0.852   3.812  0.3253 -0.5353 -0.4709
   75CHL1    O3 6659   5.100   0.698   3.673 -0.1846  0.3789 -0.5931
   75CHL1   H3' 6660   5.136   0.609   3.666  0.6279  0.6168  0.4114
   75CHL1    C4 6661   5.266   0.692   3.849  0.3522 -0.1115  0.2285
   75CHL1   H4A 6662   5.268   0.582   3.832 -1.8785 -0.2074  0.3143
   75CHL1   H4B 6663   5.332   0.747   3.779  0.0398 -0.6036 -0.4734
   75CHL1    C5 6664   5.303   0.732   3.989  0.2598 -0.5626  0.3334
   75CHL1    C6 6665   5.415   0.797   4.024 -0.1848  0.6606 -0.6327
   75CHL1    H6 6666   5.485   0.818   3.942 -0.1258  0.8161 -0.5427
   75CHL1    C7 6667   5.456   0.832   4.165 -0.7158  0.4392 -0.7093
   75CHL1   H7A 6668   5.547   0.779   4.200 -0.1633  3.6683  3.7426
   75CHL1   H7B 6669   5.461   0.942   4.182 -1.8995  0.1090  2.4951
   75CHL1    C8 6670   5.358   0.771   4.267 -0.2497  0.1973 -0.1267
   75CHL1    H8 6671   5.391   0.667   4.291  1.3314  0.9045  0.8888
   75CHL1   C14 6672   5.380   0.854   4.392 -0.3578 -0.0190  0.0434
   75CHL1   H14 6673   5.339   0.954   4.368 -1.5656 -0.6486 -0.6115
   75CHL1   C15 6674   5.517   0.874   4.448  0.0464 -0.6655 -0.1949
   75CHL1  H15A 6675   5.575   0.782   4.425  0.6947  0.1149 -1.8696
   75CHL1  H15B 6676   5.574   0.952   4.393  2.2412 -2.9031 -1.2884
   75CHL1   C16 6677   5.493   0.918   4.593 -0.9994 -0.5866  0.2603
   75CHL1  H16A 6678   5.549   0.833   4.637 -0.3552 -1.2362 -1.6968
   75CHL1  H16B 6679   5.547   1.013   4.614 -0.2048 -0.7228 -1.0669
   75CHL1   C17 6680   5.341   0.910   4.623  0.2643 -0.1904  0.2666
   75CHL1   H17 6681   5.291   1.004   4.591 -0.5745 -1.0474 -1.0071
   75CHL1   C13 6682   5.294   0.812   4.515 -0.2916 -0.6815 -0.5495
   75CHL1   C18 6683   5.333   0.664   4.562  0.1721  0.0698 -0.5622
   75CHL1  H18A 6684   5.439   0.665   4.594 -0.0934 -2.7970  0.7646
   75CHL1  H18B 6685   5.271   0.618   4.642  0.9677 -0.8481 -0.4534
   75CHL1  H18C 6686   5.336   0.584   4.485  3.1002 -2.6764  2.1157
   75CHL1   C12 6687   5.146   0.825   4.470  0.2095 -0.1790 -0.6187
   75CHL1  H12A 6688   5.080   0.764   4.536  3.0889 -3.8564 -0.7412
   75CHL1  H12B 6689   5.114   0.929   4.451  0.0484 -0.3243 -1.1704
   75CHL1   C11 6690   5.115   0.745   4.342 -0.0410  0.1184 -0.0487
   75CHL1  H11A 6691   5.111   0.637   4.364  1.4696 -0.3204 -1.6762
   75CHL1  H11B 6692   5.014   0.773   4.306  0.6228 -0.6575 -2.7863
   75CHL1    C9 6693   5.217   0.778   4.223 -0.2755 -0.3404 -0.3532
   75CHL1    H9 6694   5.207   0.886   4.198 -1.6302 -0.1838  0.7530
   75CHL1   C10 6695   5.193   0.701   4.090  1.0196 -0.2204 -0.2379
   75CHL1   C19 6696   5.198   0.546   4.109  0.9062 -0.2070 -0.4408
   75CHL1  H19A 6697   5.301   0.516   4.139  0.8879 -0.8602 -0.9996
   75CHL1  H19B 6698   5.110   0.511   4.168  0.1495  1.1321 -0.7394
   75CHL1  H19C 6699   5.175   0.487   4.017  0.8161 -0.4456 -0.2666
   75CHL1    C1 6700   5.044   0.728   4.042 -0.5974 -0.7862  0.8438
   75CHL1   H1A 6701   4.972   0.681   4.112 -0.7402 -0.1929  1.1024
   75CHL1   H1B 6702   5.027   0.838   4.044 -0.6649 -0.7164 -1.3003
   75CHL1    C2 6703   5.024   0.681   3.900  0.0332  0.3596 -0.6244
   75CHL1   H2A 6704   4.926   0.705   3.854 -1.5565 -3.2355  0.5412
   75CHL1   H2B 6705   5.027   0.570   3.898  0.4929  0.3726 -0.8579
   75CHL1   C20 6706   5.304   0.884   4.773 -0.5642  0.2210  0.0787
   75CHL1   H20 6707   5.343   0.789   4.815 -0.7184  1.1045  2.3870
   75CHL1   C21 6708   5.148   0.875   4.791 -0.6822 -0.3393  0.2763
   75CHL1  H21A 6709   5.102   0.786   4.742 -1.2704 -0.0897  0.3583
   75CHL1  H21B 6710   5.095   0.970   4.771 -1.2516 -0.4689  1.0874
   75CHL1  H21C 6711   5.136   0.861   4.901  1.5427 -2.8721  0.2968
   75CHL1   C22 6712   5.343   1.010   4.852  0.2408  0.0424  0.1301
   75CHL1  H22A 6713   5.452   1.023   4.838  0.3774  1.0869  1.8396
   75CHL1  H22B 6714   5.302   1.105   4.812 -0.2746 -0.6768 -1.1081
   75CHL1   C23 6715   5.336   0.993   5.006  0.1998  1.2650  0.1672
   75CHL1  H23A 6716   5.232   1.009   5.042  0.2835  0.9085  0.5785
   75CHL1  H23B 6717   5.358   0.884   5.016 -0.5795  0.7163 -2.8775
   75CHL1   C24 6718   5.443   1.073   5.078 -0.1100  0.3162 -0.1108
   75CHL1  H24A 6719   5.538   1.017   5.090 -1.4125 -1.9633  0.1062
   75CHL1  H24B 6720   5.470   1.165   5.021 -0.2951  0.6374  0.3151
   75CHL1   C25 6721   5.396   1.121   5.221 -0.3946 -0.0990 -0.0125
   75CHL1   H25 6722   5.310   1.190   5.205  1.4406  2.5858  0.9415
   75CHL1   C26 6723   5.333   1.000   5.307  0.0569 -0.0041 -0.3653
   75CHL1  H26A 6724   5.279   0.928   5.242  0.2610 -0.4805 -0.0152
   75CHL1  H26B 6725   5.424   0.953   5.349  0.2221  0.8965  0.3096
   75CHL1  H26C 6726   5.278   1.017   5.402 -0.8649  0.4742 -0.9660
   75CHL1   C27 6727   5.508   1.199   5.301 -0.5540  0.1736 -0.1005
   75CHL1  H27A 6728   5.472   1.233   5.401  1.2607  0.2039  0.5798
   75CHL1  H27B 6729   5.595   1.132   5.310 -2.0856 -2.2688 -2.1252
   75CHL1  H27C 6730   5.541   1.288   5.242 -0.2398 -0.6596 -1.2115
   76CHL1    C3 6731   3.916   1.517   3.993  0.9438  0.0177 -0.2172
   76CHL1    H3 6732   3.957   1.620   3.995 -0.0001  0.4160 -0.7647
   76CHL1    O3 6733   3.898   1.474   3.859  0.4579 -0.1384 -0.2265
   76CHL1   H3' 6734   3.844   1.541   3.818  1.2774  0.7806  0.1659
   76CHL1    C4 6735   4.013   1.438   4.067 -0.4402  0.2466 -0.5241
   76CHL1   H4A 6736   3.995   1.330   4.046  2.3787 -0.2720 -0.6817
   76CHL1   H4B 6737   4.117   1.457   4.033  2.4401 -4.6921  3.8829
   76CHL1    C5 6738   4.010   1.454   4.217  0.4837  0.4123  0.8687
   76CHL1    C6 6739   4.119   1.468   4.294 -1.2360  0.6726 -0.1696
   76CHL1    H6 6740   4.220   1.469   4.251 -1.0986  0.2725  0.1408
   76CHL1    C7 6741   4.117   1.489   4.440  0.3784 -0.2903 -0.2728
   76CHL1   H7A 6742   4.196   1.419   4.477 -0.5938 -1.6420 -0.6803
   76CHL1   H7B 6743   4.148   1.592   4.467  0.7414 -0.8900  1.7403
   76CHL1    C8 6744   3.980   1.458   4.503  0.4648 -0.2900 -0.3266
   76CHL1    H8 6745   3.971   1.347   4.507 -1.8170 -0.1405 -0.1765
   76CHL1   C14 6746   3.981   1.517   4.641  0.8428 -0.1253 -0.5378
   76CHL1   H14 6747   4.012   1.623   4.629  2.3396 -0.6007 -1.0321
   76CHL1   C15 6748   4.099   1.472   4.730  0.0283  0.0827  0.1455
   76CHL1  H15A 6749   4.107   1.361   4.722 -1.7068 -0.0515 -0.1340
   76CHL1  H15B 6750   4.199   1.515   4.707  0.7753 -1.7423 -0.1827
   76CHL1   C16 6751   4.058   1.517   4.872  0.1734 -0.3855  0.8353
   76CHL1  H16A 6752   4.063   1.430   4.941 -0.9011 -1.5846 -0.5368
   76CHL1  H16B 6753   4.122   1.600   4.909  0.5260 -0.2848  0.0349
   76CHL1   C17 6754   3.902   1.557   4.861 -0.0788  0.5746  0.1782
   76CHL1   H17 6755   3.904   1.668   4.856  0.3026  0.5675  0.1487
   76CHL1   C13 6756   3.853   1.501   4.731  0.1222  0.5739  0.5063
   76CHL1   C18 6757   3.825   1.346   4.748  0.1775  0.6920  0.8136
   76CHL1  H18A 6758   3.896   1.299   4.819  0.2400  1.1996  1.0873
   76CHL1  H18B 6759   3.721   1.334   4.787  0.9357 -0.7692  2.5590
   76CHL1  H18C 6760   3.830   1.296   4.649  1.4828  3.9975 -0.9526
   76CHL1   C12 6761   3.739   1.564   4.649  0.4126  0.3392 -0.2866
   76CHL1  H12A 6762   3.637   1.550   4.690  0.9809 -1.1517  0.6520
   76CHL1  H12B 6763   3.755   1.674   4.636 -1.4584  0.6488 -0.2646
   76CHL1   C11 6764   3.736   1.502   4.503  0.2279  0.4869  0.1044
   76CHL1  H11A 6765   3.698   1.399   4.519  3.2581 -0.3765  2.7221
   76CHL1  H11B 6766   3.664   1.558   4.440  0.5646  1.3065  0.4327
   76CHL1    C9 6767   3.865   1.510   4.423 -0.5136 -0.1238  0.9740
   76CHL1    H9 6768   3.890   1.617   4.411 -0.2789 -0.3591 -1.0031
   76CHL1   C10 6769   3.865   1.454   4.276 -0.2957 -0.2205  0.1784
   76CHL1   C19 6770   3.821   1.306   4.276 -0.0389  0.5198  0.3877
   76CHL1  H19A 6771   3.816   1.275   4.170 -3.0312  0.8037  0.3615
   76CHL1  H19B 6772   3.886   1.243   4.340  0.3814  0.6017  0.0422
   76CHL1  H19C 6773   3.719   1.295   4.320  0.4317 -1.3085  1.1337
   76CHL1    C1 6774   3.774   1.546   4.197 -1.4203 -0.4370  0.1150
   76CHL1   H1A 6775   3.668   1.528   4.226 -1.8744  0.2156 -1.0536
   76CHL1   H1B 6776   3.809   1.650   4.210  1.7398 -1.5619  1.8379
   76CHL1    C2 6777   3.777   1.513   4.047  0.1481 -0.2655  0.3200
   76CHL1   H2A 6778   3.707   1.582   3.995 -1.5892 -1.0879  1.4691
   76CHL1   H2B 6779   3.727   1.416   4.025  0.6973 -0.4139 -0.3227
   76CHL1   C20 6780   3.828   1.517   4.993 -0.6346 -0.4929  0.5563
   76CHL1   H20 6781   3.833   1.407   5.008 -1.7419 -0.7114 -0.4621
   76CHL1   C21 6782   3.675   1.553   4.983  0.8406  0.2379  0.0965
   76CHL1  H21A 6783   3.619   1.555   5.079 -2.6180  0.3309 -1.7667
   76CHL1  H21B 6784   3.635   1.471   4.920  5.0343 -2.1809  0.2073
   76CHL1  H21C 6785   3.665   1.650   4.929  2.8737 -0.2975 -1.3844
   76CHL1   C22 6786   3.886   1.594   5.114 -0.0635 -0.5518  0.2255
   76CHL1  H22A 6787   3.988   1.550   5.117  0.8064  1.3021 -0.7148
   76CHL1  H22B 6788   3.894   1.701   5.086 -1.4864 -0.9251 -1.8605
   76CHL1   C23 6789   3.813   1.599   5.252 -0.0072  0.1397 -0.0155
   76CHL1  H23A 6790   3.722   1.663   5.250  1.0420  1.8129  1.6599
   76CHL1  H23B 6791   3.786   1.496   5.281  1.2546  0.1962  1.5172
   76CHL1   C24 6792   3.910   1.653   5.365 -0.2716 -0.1863  0.8056
   76CHL1  H24A 6793   3.999   1.587   5.375  2.1520  2.8571  0.7482
   76CHL1  H24B 6794   3.950   1.754   5.344  4.1166 -1.9925 -0.7602
   76CHL1   C25 6795   3.840   1.652   5.499 -0.5116  0.7496  1.4480
   76CHL1   H25 6796   3.741   1.697   5.476  0.3810  2.7676  1.2794
   76CHL1   C26 6797   3.817   1.510   5.559 -0.1712 -0.5916 -0.2335
   76CHL1  H26A 6798   3.913   1.480   5.606  1.8853 -0.6651 -4.0816
   76CHL1  H26B 6799   3.738   1.532   5.634  2.1550  2.3466  1.5830
   76CHL1  H26C 6800   3.783   1.433   5.486 -1.3641 -2.0569  1.7664
   76CHL1   C27 6801   3.915   1.731   5.607  0.5808 -0.7652 -0.3019
   76CHL1  H27A 6802   3.869   1.715   5.707  1.2461  2.5713  0.6576
   76CHL1  H27B 6803   4.024   1.719   5.623  0.4053 -1.3876  0.5458
   76CHL1  H27C 6804   3.895   1.839   5.594 -0.5010 -0.5789  2.2896
   77SOPE     N 6805   1.536   6.138   7.574  0.3836 -0.1393 -0.0398
   77SOPE   HN1 6806   1.485   6.144   7.664 -0.3368  0.4273 -0.4746
   77SOPE   HN2 6807   1.561   6.233   7.538  2.1678 -0.2386  0.8099
   77SOPE   HN3 6808   1.474   6.086   7.509 -0.1639 -0.0022  0.3596
   77SOPE   C12 6809   1.658   6.059   7.602  0.5321  0.0911  0.4195
   77SOPE  H12A 6810   1.712   6.115   7.681 -1.0817  1.1525  0.8059
   77SOPE  H12B 6811   1.715   6.036   7.509 -0.5248 -1.0017  0.0120
   77SOPE   C11 6812   1.615   5.911   7.644  0.1193 -0.2196 -0.6014
   77SOPE  H11A 6813   1.596   5.908   7.753  0.6128  0.7875 -0.4777
   77SOPE  H11B 6814   1.703   5.844   7.632 -0.1894 -0.3470 -2.3486
   77SOPE     P 6815   1.493   5.716   7.525 -0.4629  0.5865 -0.2716
   77SOPE   O13 6816   1.365   5.697   7.447 -0.2619 -0.9368 -0.0402
   77SOPE   O14 6817   1.515   5.627   7.642 -0.1699  0.3026 -0.0554
   77SOPE   O12 6818   1.500   5.864   7.571  0.1776 -0.5979 -0.0009
   77SOPE   O11 6819   1.611   5.705   7.438  0.3387 -0.4494 -0.0696
   77SOPE    C1 6820   1.622   5.789   7.318  0.2434 -0.5316  0.0601
   77SOPE    HA 6821   1.657   5.892   7.340  1.0695 -0.6179 -0.7654
   77SOPE    HB 6822   1.522   5.799   7.272 -0.5098 -1.2716  1.4851
   77SOPE    C2 6823   1.724   5.727   7.226 -0.7357  0.3638 -0.1448
   77SOPE    HS 6824   1.736   5.797   7.140  2.4148  0.4189  0.2081
   77SOPE   O21 6825   1.672   5.599   7.194 -0.0265  0.1621  0.1978
   77SOPE   C21 6826   1.569   5.610   7.106  0.0355  0.1546 -0.0820
   77SOPE   O22 6827   1.526   5.705   7.048 -0.0582  0.3277  0.1603
   77SOPE   C22 6828   1.516   5.466   7.094  0.0659 -0.3364 -0.0397
   77SOPE   H2R 6829   1.483   5.420   7.189  1.0268 -0.3553  0.2916
   77SOPE   H2S 6830   1.601   5.399   7.069  0.3949  0.0881 -0.0631
   77SOPE    C3 6831   1.863   5.719   7.298 -0.1480  0.4342 -0.6510
   77SOPE    HX 6832   1.938   5.658   7.243 -0.4371 -1.6737  1.1908
   77SOPE    HY 6833   1.842   5.678   7.399  2.1625  0.4321 -0.0960
   77SOPE   O31 6834   1.923   5.848   7.322  0.7317  0.2204  0.1289
   77SOPE   C31 6835   2.005   5.888   7.225  0.1342 -0.5735  0.1499
   77SOPE   O32 6836   2.032   5.834   7.121  0.0143 -0.1700 -0.1520
   77SOPE   C32 6837   2.057   6.026   7.265  0.1821 -0.1106 -0.0652
   77SOPE   H2X 6838   2.076   6.028   7.374 -0.0858 -0.2193 -0.0157
   77SOPE   H2Y 6839   1.974   6.097   7.250  0.7906  0.3617 -1.3642
   77SOPE   C23 6840   1.407   5.464   6.985 -0.2003 -0.0182 -0.4145
   77SOPE   H3R 6841   1.421   5.533   6.899 -0.2110  2.7712  1.6755
   77SOPE   H3S 6842   1.309   5.496   7.027 -0.0308 -0.1283  0.0816
   77SOPE   C24 6843   1.386   5.318   6.950 -0.4195  0.2559 -0.2924
   77SOPE   H4R 6844   1.476   5.271   6.906 -0.1058  0.4974  0.0884
   77SOPE   H4S 6845   1.366   5.264   7.045  2.0529 -0.9266 -0.3724
   77SOPE   C25 6846   1.278   5.308   6.841  0.5166  0.0322  0.3346
   77SOPE   H5R 6847   1.213   5.221   6.863 -0.2662  0.2105 -1.1441
   77SOPE   H5S 6848   1.206   5.393   6.843  0.6542  0.2008 -0.8296
   77SOPE   C26 6849   1.331   5.289   6.698  0.0054 -0.0051  1.0271
   77SOPE   H6R 6850   1.392   5.380   6.677  1.0869 -0.7394  0.9284
   77SOPE   H6S 6851   1.392   5.197   6.687 -0.7341 -0.4359  0.4973
   77SOPE   C27 6852   1.213   5.265   6.599 -0.1570 -0.5927 -0.0842
   77SOPE   H7R 6853   1.147   5.184   6.638 -0.5705 -0.3336 -0.2455
   77SOPE   H7S 6854   1.136   5.344   6.608 -0.5402 -1.1222  1.5731
   77SOPE   C28 6855   1.257   5.242   6.456 -0.0016 -0.0630  0.0514
   77SOPE   H8R 6856   1.341   5.168   6.459  0.8950  0.9283 -0.1509
   77SOPE   H8S 6857   1.173   5.204   6.393  0.0920  0.6907 -0.5352
   77SOPE   C29 6858   1.325   5.360   6.388 -0.0200 -0.1147  0.2428
   77SOPE   H91 6859   1.419   5.389   6.437  1.3967 -2.3084 -0.9998
   77SOPE  C210 6860   1.285   5.435   6.291 -0.5218  0.5169 -0.0292
   77SOPE  H101 6861   1.354   5.516   6.263  0.9417 -0.3013  1.0417
   77SOPE  C211 6862   1.156   5.418   6.215 -0.2903 -0.4206  0.1767
   77SOPE  H11R 6863   1.124   5.523   6.198  0.8592  0.1120  1.1330
   77SOPE  H11S 6864   1.081   5.373   6.284 -0.9699  1.1412  0.5107
   77SOPE  C212 6865   1.176   5.349   6.078  0.5092 -0.4228  0.3430
   77SOPE  H12R 6866   1.070   5.360   6.046  0.6524  4.8981  0.8467
   77SOPE  H12S 6867   1.198   5.241   6.088 -0.2587 -0.5992  0.2362
   77SOPE  C213 6868   1.260   5.422   5.971  0.9918 -1.0452  0.0734
   77SOPE  H13R 6869   1.366   5.432   6.002  0.4974  0.5448  1.4308
   77SOPE  H13S 6870   1.229   5.529   5.960  1.2860 -1.1061 -1.6026
   77SOPE  C214 6871   1.260   5.357   5.832 -0.3993  0.3758  0.1281
   77SOPE  H14R 6872   1.263   5.249   5.860  0.2408  0.6611  1.2072
   77SOPE  H14S 6873   1.357   5.384   5.785 -1.0472 -1.3405 -2.4208
   77SOPE  C215 6874   1.133   5.396   5.760  0.1349  0.1471  0.0725
   77SOPE  H15R 6875   1.120   5.506   5.750 -1.1570 -0.0004 -0.0384
   77SOPE  H15S 6876   1.040   5.364   5.812 -0.1450  1.9066  0.7300
   77SOPE  C216 6877   1.118   5.343   5.611  0.5106 -0.2197  0.2925
   77SOPE  H16R 6878   1.031   5.399   5.569  0.3620 -0.2833  0.5141
   77SOPE  H16S 6879   1.106   5.233   5.609  1.1653 -0.3394  1.5960
   77SOPE  C217 6880   1.237   5.382   5.523  0.7101  0.6530  0.7448
   77SOPE  H17R 6881   1.334   5.340   5.557  1.5013 -0.8226 -2.8727
   77SOPE  H17S 6882   1.260   5.490   5.529  0.5796  0.7798 -0.6187
   77SOPE  C218 6883   1.208   5.329   5.381 -0.0752  0.3074  0.1223
   77SOPE  H18R 6884   1.260   5.394   5.307  1.9969 -1.7635 -0.3343
   77SOPE  H18S 6885   1.097   5.325   5.369 -0.1317  2.1393 -0.3191
   77SOPE  H18T 6886   1.253   5.230   5.363 -0.0073  0.7071 -2.2089
   77SOPE   C33 6887   2.181   6.080   7.183  0.0540  0.4011 -0.3854
   77SOPE   H3X 6888   2.265   6.010   7.204  1.1211  1.8166  0.2422
   77SOPE   H3Y 6889   2.204   6.180   7.227  1.9295  0.7668 -2.0055
   77SOPE   C34 6890   2.146   6.087   7.036  0.8068  0.0731  0.7758
   77SOPE   H4X 6891   2.043   6.117   7.009  0.4526 -1.5601  0.1966
   77SOPE   H4Y 6892   2.159   5.982   7.003  1.9687  0.2179  0.6981
   77SOPE   C35 6893   2.243   6.185   6.955 -0.1813  0.1283  0.2534
   77SOPE   H5X 6894   2.350   6.156   6.959  0.2233  1.5727  0.2175
   77SOPE   H5Y 6895   2.246   6.289   6.993  0.7100  0.6583 -1.1974
   77SOPE   C36 6896   2.185   6.194   6.814 -0.1568  0.2877  0.0936
   77SOPE   H6X 6897   2.228   6.282   6.763  0.7891 -0.0270  0.3194
   77SOPE   H6Y 6898   2.077   6.218   6.821 -0.5571 -0.7867 -1.7892
   77SOPE   C37 6899   2.191   6.064   6.725 -0.1477 -0.4311  0.3853
   77SOPE   H7X 6900   2.155   5.974   6.780  1.7458 -1.7077 -0.3715
   77SOPE   H7Y 6901   2.296   6.048   6.692 -0.6617 -0.3166 -1.4579
   77SOPE   C38 6902   2.104   6.061   6.596  0.4608 -0.6812 -0.7484
   77SOPE   H8X 6903   2.109   6.156   6.538 -2.6217  0.7781  1.1176
   77SOPE   H8Y 6904   1.999   6.061   6.630  0.7397 -1.0522  0.1264
   77SOPE   C39 6905   2.123   5.937   6.505  0.0111  0.5645 -0.7985
   77SOPE   H9X 6906   2.110   5.850   6.573  2.7048  1.0362  0.4401
   77SOPE   H9Y 6907   2.230   5.943   6.476  0.4370  0.2113  0.5956
   77SOPE  C310 6908   2.023   5.922   6.381  0.0462 -0.2920  0.5900
   77SOPE  H10X 6909   2.012   6.025   6.340 -1.5310 -0.7908 -0.3137
   77SOPE  H10Y 6910   1.922   5.885   6.411 -0.1673 -0.5529 -0.4155
   77SOPE  C311 6911   2.065   5.823   6.264  0.2326 -0.3079 -0.1056
   77SOPE  H11X 6912   1.973   5.802   6.205 -0.1442 -1.9081  0.9610
   77SOPE  H11Y 6913   2.090   5.726   6.313  2.2301 -1.0043 -2.3262
   77SOPE  C312 6914   2.165   5.867   6.164 -0.2474 -0.4514  0.5762
   77SOPE  H12X 6915   2.266   5.898   6.199 -0.0685  2.0689 -1.8710
   77SOPE  H12Y 6916   2.125   5.957   6.113  0.1505 -1.1465 -1.0069
   77SOPE  C313 6917   2.190   5.766   6.052 -1.0739 -0.1914  0.0473
   77SOPE  H13X 6918   2.228   5.669   6.091 -0.7978 -0.5555 -1.0934
   77SOPE  H13Y 6919   2.272   5.817   5.998  1.2441 -0.5282  2.9908
   77SOPE  C314 6920   2.063   5.740   5.966 -0.2596  0.0866  0.5060
   77SOPE  H14X 6921   2.019   5.839   5.941 -1.4837 -0.0303  2.0295
   77SOPE  H14Y 6922   1.993   5.679   6.028 -1.1666 -2.5610 -2.7766
   77SOPE  C315 6923   2.088   5.649   5.843 -0.3393 -0.7837  0.6345
   77SOPE  H15X 6924   2.156   5.705   5.776 -1.0728  2.2546  2.2606
   77SOPE  H15Y 6925   1.996   5.625   5.786  0.2845 -2.7434  0.3732
   77SOPE  C316 6926   2.152   5.516   5.884  0.4894  0.2748  0.2548
   77SOPE  H16X 6927   2.085   5.461   5.953  0.3225 -3.1023 -2.3431
   77SOPE  H16Y 6928   2.251   5.514   5.935  0.8018 -4.0163 -0.1348
   77SOPE  C317 6929   2.166   5.419   5.766  0.0499  0.5216  0.0947
   77SOPE  H17X 6930   2.229   5.334   5.796  0.1966 -0.9944 -3.8955
   77SOPE  H17Y 6931   2.229   5.465   5.687  1.0061 -0.9477 -0.0336
   77SOPE  C318 6932   2.026   5.376   5.701 -0.2010  0.3620  0.1633
   77SOPE  H18X 6933   1.961   5.340   5.784 -0.4813  1.5349  0.4829
   77SOPE  H18Y 6934   2.041   5.303   5.619 -0.2253  0.0502  0.4332
   77SOPE  H18Z 6935   1.979   5.463   5.650  0.6839 -1.4581 -4.2154
   78SOPE     N 6936   1.286   5.102   7.776  0.2585 -0.5949 -0.5499
   78SOPE   HN1 6937   1.348   5.071   7.698  1.2489 -3.1704  1.1027
   78SOPE   HN2 6938   1.363   5.123   7.843  0.6560 -2.3427 -0.4109
   78SOPE   HN3 6939   1.236   5.019   7.814  2.2919 -1.5330  0.2694
   78SOPE   C12 6940   1.203   5.221   7.729 -0.3970  0.1790  0.4449
   78SOPE  H12A 6941   1.275   5.304   7.713 -0.1390  0.5302  2.9729
   78SOPE  H12B 6942   1.131   5.243   7.811  0.7745  2.6282  0.9085
   78SOPE   C11 6943   1.142   5.171   7.599 -0.9813  0.1615  0.7824
   78SOPE  H11A 6944   1.219   5.142   7.524 -0.8274  2.1249  0.1218
   78SOPE  H11B 6945   1.088   5.256   7.550 -1.2667 -0.9494 -0.9170
   78SOPE     P 6946   0.990   4.993   7.485 -0.4661 -0.0371  0.2949
   78SOPE   O13 6947   0.893   4.888   7.525  0.1203 -0.0115 -0.1474
   78SOPE   O14 6948   1.090   4.959   7.382 -0.1134 -0.2143 -0.0494
   78SOPE   O12 6949   1.052   5.062   7.611 -0.1274 -0.0132 -0.2091
   78SOPE   O11 6950   0.901   5.119   7.435  0.6188  0.0633 -0.4947
   78SOPE    C1 6951   0.797   5.094   7.348 -1.0880 -0.1830  0.1906
   78SOPE    HA 6952   0.702   5.133   7.390 -1.6024 -1.2421  0.0370
   78SOPE    HB 6953   0.773   4.988   7.326 -1.4468  0.0495 -0.5667
   78SOPE    C2 6954   0.826   5.149   7.205  0.0296  0.0386 -0.3768
   78SOPE    HS 6955   0.911   5.092   7.164  1.3082  2.5189 -1.3819
   78SOPE   O21 6956   0.844   5.292   7.209 -0.2460 -0.4990 -0.0343
   78SOPE   C21 6957   0.937   5.336   7.123  0.6045  0.3220  0.3430
   78SOPE   O22 6958   1.025   5.266   7.076  0.0650  0.8156  0.0072
   78SOPE   C22 6959   0.899   5.483   7.092  0.3673 -0.8108 -0.3017
   78SOPE   H2R 6960   0.994   5.533   7.062 -0.4058  0.4752 -0.6761
   78SOPE   H2S 6961   0.848   5.533   7.177  1.9363  0.3658  0.0021
   78SOPE    C3 6962   0.705   5.129   7.109  0.3706 -0.4819 -0.0375
   78SOPE    HX 6963   0.623   5.200   7.133  0.6171 -0.0056 -0.5780
   78SOPE    HY 6964   0.665   5.026   7.122  3.1685 -1.6556  0.0347
   78SOPE   O31 6965   0.743   5.163   6.969 -0.3480 -0.1550  0.5174
   78SOPE   C31 6966   0.803   5.059   6.905  0.0367 -0.4544  0.5277
   78SOPE   O32 6967   0.826   4.949   6.960 -0.0434  0.1753  0.1067
   78SOPE   C32 6968   0.839   5.095   6.764 -0.1972 -0.1898  0.2147
   78SOPE   H2X 6969   0.938   5.146   6.761  0.1096 -0.7950 -2.5862
   78SOPE   H2Y 6970   0.764   5.166   6.722  0.9656  0.8735 -0.1388
   78SOPE   C23 6971   0.812   5.485   6.966  0.1622  0.5269  0.0914
   78SOPE   H3R 6972   0.763   5.584   6.952  1.8837  1.5564  0.9121
   78SOPE   H3S 6973   0.729   5.412   6.977  1.3426 -0.8119  0.4813
   78SOPE   C24 6974   0.887   5.448   6.835  0.0396 -0.0406  0.5348
   78SOPE   H4R 6975   0.957   5.534   6.825  0.8986 -0.5965  1.5744
   78SOPE   H4S 6976   0.940   5.351   6.844  1.9192  0.8209 -0.7289
   78SOPE   C25 6977   0.788   5.458   6.718  0.0060  0.7918  0.8897
   78SOPE   H5R 6978   0.710   5.382   6.740  0.4249 -0.2240 -0.8778
   78SOPE   H5S 6979   0.741   5.559   6.713 -0.4262  0.5321 -1.1730
   78SOPE   C26 6980   0.847   5.419   6.575  0.0432 -0.3825 -0.1559
   78SOPE   H6R 6981   0.910   5.499   6.531  0.7460 -1.7110 -1.6918
   78SOPE   H6S 6982   0.910   5.327   6.578 -1.3005 -1.3313  0.0106
   78SOPE   C27 6983   0.740   5.391   6.461  0.2128  0.1358  0.9275
   78SOPE   H7R 6984   0.790   5.365   6.366  1.1387  3.6057  0.3474
   78SOPE   H7S 6985   0.687   5.300   6.498  0.3199 -1.0426 -1.6273
   78SOPE   C28 6986   0.637   5.506   6.440 -0.6474  0.3419 -0.3032
   78SOPE   H8R 6987   0.575   5.523   6.531  2.7480  1.1727  2.0549
   78SOPE   H8S 6988   0.679   5.608   6.425  0.4836 -0.2454 -1.2718
   78SOPE   C29 6989   0.537   5.481   6.330  0.9475  0.0780  0.6662
   78SOPE   H91 6990   0.445   5.432   6.366  1.7018 -0.5645  1.7749
   78SOPE  C210 6991   0.555   5.491   6.199 -0.3068  0.1784  1.2116
   78SOPE  H101 6992   0.477   5.477   6.122  0.6602 -2.1462  0.5430
   78SOPE  C211 6993   0.682   5.552   6.144 -0.6911 -0.0530 -0.3755
   78SOPE  H11R 6994   0.749   5.587   6.225  0.3468  2.4953 -2.2025
   78SOPE  H11S 6995   0.655   5.647   6.092 -1.4437  0.1211  0.3064
   78SOPE  C212 6996   0.764   5.468   6.042 -0.8416  0.1801  0.5969
   78SOPE  H12R 6997   0.807   5.386   6.103 -0.8131 -0.5800 -0.4337
   78SOPE  H12S 6998   0.841   5.536   6.001  0.7450 -1.4882  0.7040
   78SOPE  C213 6999   0.680   5.406   5.926  0.5109 -0.9108 -0.1566
   78SOPE  H13R 7000   0.609   5.329   5.963  1.8627 -2.6001 -0.9356
   78SOPE  H13S 7001   0.745   5.347   5.858  0.5595  1.0057 -1.8661
   78SOPE  C214 7002   0.609   5.506   5.843  0.3231  0.1049 -0.1527
   78SOPE  H14R 7003   0.529   5.546   5.910  0.4265  0.1220 -0.0401
   78SOPE  H14S 7004   0.559   5.438   5.772  1.3773  0.3027 -1.1098
   78SOPE  C215 7005   0.695   5.613   5.772  0.7569  0.2351 -0.1360
   78SOPE  H15R 7006   0.743   5.574   5.680 -1.5450 -0.4923 -1.1003
   78SOPE  H15S 7007   0.776   5.649   5.839  2.7973 -1.0600 -1.7535
   78SOPE  C216 7008   0.610   5.731   5.727 -0.1887  0.4559  0.4051
   78SOPE  H16R 7009   0.686   5.807   5.700  1.2670 -1.1712 -0.2713
   78SOPE  H16S 7010   0.561   5.768   5.819 -0.2241  2.0400 -0.2177
   78SOPE  C217 7011   0.503   5.704   5.616 -0.0942 -0.1125 -0.4808
   78SOPE  H17R 7012   0.466   5.802   5.579 -1.2597 -0.2667  0.2260
   78SOPE  H17S 7013   0.417   5.653   5.664 -0.0874 -0.0957 -0.4509
   78SOPE  C218 7014   0.537   5.615   5.496 -0.7834  0.2579 -0.5347
   78SOPE  H18R 7015   0.602   5.682   5.435  0.6209 -0.3077  0.2787
   78SOPE  H18S 7016   0.440   5.593   5.446 -0.3653  0.2864 -1.3958
   78SOPE  H18T 7017   0.584   5.521   5.533 -1.8104 -0.0131  0.1120
   78SOPE   C33 7018   0.853   4.966   6.677 -0.8500  0.4014  0.2697
   78SOPE   H3X 7019   0.754   4.917   6.661 -0.9625  0.8686 -0.5198
   78SOPE   H3Y 7020   0.918   4.891   6.728 -1.5562 -0.4477 -0.0542
   78SOPE   C34 7021   0.928   5.006   6.542 -0.1674  0.1939  0.1442
   78SOPE   H4X 7022   1.033   5.041   6.557 -0.6808  2.8030 -1.6370
   78SOPE   H4Y 7023   0.878   5.092   6.494  1.7113  1.9676  1.1947
   78SOPE   C35 7024   0.948   4.892   6.453  1.2180 -0.2982 -0.3516
   78SOPE   H5X 7025   0.848   4.860   6.416  0.8343 -0.0312  0.4213
   78SOPE   H5Y 7026   0.998   4.808   6.506 -1.2441 -3.2413 -2.3161
   78SOPE   C36 7027   1.012   4.917   6.314  0.0062  0.0311 -0.9590
   78SOPE   H6X 7028   1.023   4.811   6.280  0.3669 -0.1249 -0.3806
   78SOPE   H6Y 7029   1.115   4.959   6.322  0.2529 -0.7597  0.4509
   78SOPE   C37 7030   0.921   4.978   6.210  0.3238 -0.1908  0.1945
   78SOPE   H7X 7031   0.910   5.087   6.229 -2.2136 -0.5276  0.9695
   78SOPE   H7Y 7032   0.816   4.943   6.216  0.0651 -1.2593 -5.1832
   78SOPE   C38 7033   0.974   4.954   6.065  0.1746 -0.1282  0.2304
   78SOPE   H8X 7034   0.990   4.845   6.055  2.2080  0.2088 -0.8339
   78SOPE   H8Y 7035   1.073   5.000   6.047  1.1103 -1.1573  2.3917
   78SOPE   C39 7036   0.884   5.007   5.957  0.0807  0.0625 -0.6163
   78SOPE   H9X 7037   0.888   5.118   5.957 -2.0393  0.1822 -0.3415
   78SOPE   H9Y 7038   0.775   4.986   5.962  0.0846 -0.4501 -2.1382
   78SOPE  C310 7039   0.922   4.959   5.811  0.1173  0.6688 -0.0143
   78SOPE  H10X 7040   0.872   4.867   5.773 -0.5393  0.0546  2.2133
   78SOPE  H10Y 7041   1.027   4.925   5.815 -0.3217 -0.8031 -0.2491
   78SOPE  C311 7042   0.902   5.062   5.697  0.0108  0.9248 -0.4440
   78SOPE  H11X 7043   0.960   5.027   5.609 -0.1796 -0.2297 -0.1239
   78SOPE  H11Y 7044   0.935   5.166   5.720  1.4286  0.0308  1.9364
   78SOPE  C312 7045   0.762   5.088   5.643  0.1989  0.1368 -0.3149
   78SOPE  H12X 7046   0.699   5.148   5.712 -0.6724 -1.6374  0.4973
   78SOPE  H12Y 7047   0.711   4.992   5.623  0.4813 -0.7392  2.6531
   78SOPE  C313 7048   0.778   5.167   5.518  0.3267  0.3586 -0.4189
   78SOPE  H13X 7049   0.870   5.136   5.464  0.1632 -0.9420  0.0143
   78SOPE  H13Y 7050   0.802   5.268   5.558 -0.0848 -0.6354  2.6345
   78SOPE  C314 7051   0.654   5.171   5.430  0.3994  0.3625 -0.1186
   78SOPE  H14X 7052   0.670   5.222   5.333 -0.0727 -1.6625 -1.3111
   78SOPE  H14Y 7053   0.577   5.238   5.474  1.1843  1.4035 -0.2739
   78SOPE  C315 7054   0.588   5.043   5.390 -0.2485  0.2778  0.0452
   78SOPE  H15X 7055   0.557   4.989   5.483 -0.5696 -0.1181 -0.2885
   78SOPE  H15Y 7056   0.669   4.985   5.339 -1.2190 -0.2109 -0.9851
   78SOPE  C316 7057   0.480   5.065   5.280 -0.2228  0.4394  0.2772
   78SOPE  H16X 7058   0.515   5.123   5.191 -0.4584 -1.6863 -1.2823
   78SOPE  H16Y 7059   0.390   5.111   5.325 -0.8696 -1.4092  0.9339
   78SOPE  C317 7060   0.443   4.926   5.217  0.2023 -0.6031 -0.0970
   78SOPE  H17X 7061   0.539   4.882   5.184  1.3505  3.1748 -2.3346
   78SOPE  H17Y 7062   0.375   4.954   5.134  1.6148  1.3106 -0.6844
   78SOPE  C318 7063   0.378   4.830   5.324  0.5387  0.2421 -0.0640
   78SOPE  H18X 7064   0.294   4.871   5.384  0.5181 -1.4250  1.1242
   78SOPE  H18Y 7065   0.457   4.799   5.395  1.4717  2.6854  0.0708
   78SOPE  H18Z 7066   0.354   4.730   5.283  4.0956 -1.3252  1.2783
   79SOPE     N 7067   0.964   3.068   7.589  0.1292 -0.0581 -0.7618
   79SOPE   HN1 7068   0.983   2.972   7.624 -3.5153 -0.5690  0.1812
   79SOPE   HN2 7069   1.003   3.144   7.648  0.7803  0.7177 -2.1380
   79SOPE   HN3 7070   0.861   3.083   7.593  0.4910  3.1063 -0.6104
   79SOPE   C12 7071   1.019   3.103   7.452 -0.0076  0.1494 -0.7598
   79SOPE  H12A 7072   1.128   3.092   7.475 -1.0420 -4.2073  4.0575
   79SOPE  H12B 7073   1.007   3.212   7.433  0.6512  0.6098  1.2533
   79SOPE   C11 7074   0.980   3.025   7.329  0.2580 -0.3077  0.2997
   79SOPE  H11A 7075   1.066   3.039   7.259  1.7983 -0.6767  2.0453
   79SOPE  H11B 7076   0.888   3.081   7.302  0.8040  1.3038  1.5708
   79SOPE     P 7077   0.836   2.809   7.368 -0.2629 -0.4838  0.1152
   79SOPE   O13 7078   0.737   2.891   7.437 -0.1875 -0.4147  0.1130
   79SOPE   O14 7079   0.857   2.670   7.422  0.8579 -0.2517  0.1364
   79SOPE   O12 7080   0.966   2.891   7.367  0.3276  0.0790  0.3134
   79SOPE   O11 7081   0.801   2.798   7.214  0.4633 -0.2817 -0.1187
   79SOPE    C1 7082   0.830   2.684   7.132  0.2543  0.7656  0.4771
   79SOPE    HA 7083   0.928   2.637   7.155  1.5830  2.6281 -1.0545
   79SOPE    HB 7084   0.844   2.726   7.030  0.9970  2.2130  1.1478
   79SOPE    C2 7085   0.716   2.581   7.128  0.2521  0.3464 -0.0524
   79SOPE    HS 7086   0.721   2.534   7.229 -1.6350  1.2881  0.5330
   79SOPE   O21 7087   0.747   2.497   7.015  0.0743 -0.5791  0.2290
   79SOPE   C21 7088   0.701   2.377   7.030 -0.6118  0.4889 -0.4662
   79SOPE   O22 7089   0.661   2.330   7.137 -0.5601  0.1468  0.0615
   79SOPE   C22 7090   0.724   2.297   6.899 -0.1341  0.4258  0.2544
   79SOPE   H2R 7091   0.831   2.294   6.870  0.0525  0.2834  0.9450
   79SOPE   H2S 7092   0.676   2.362   6.823  1.7847  2.5303  0.7547
   79SOPE    C3 7093   0.583   2.655   7.112 -0.6674 -0.2854  0.6816
   79SOPE    HX 7094   0.583   2.721   7.023  0.3085 -1.8718 -0.5467
   79SOPE    HY 7095   0.572   2.713   7.206  0.2664  1.0083  0.0237
   79SOPE   O31 7096   0.481   2.561   7.095  0.0091 -0.2270 -0.2310
   79SOPE   C31 7097   0.356   2.612   7.095 -0.3924 -0.3102  0.5037
   79SOPE   O32 7098   0.332   2.718   7.149 -0.2065 -0.3169 -0.5149
   79SOPE   C32 7099   0.254   2.531   7.014 -0.4689  0.1933 -0.0430
   79SOPE   H2X 7100   0.166   2.510   7.078 -0.0470  0.7420  0.7325
   79SOPE   H2Y 7101   0.310   2.437   6.994  1.1199  0.9747  0.5410
   79SOPE   C23 7102   0.662   2.156   6.894 -0.2233  0.1854  0.0203
   79SOPE   H3R 7103   0.609   2.145   6.991  0.7060  1.4890  0.7082
   79SOPE   H3S 7104   0.740   2.079   6.877 -0.0643  0.3731 -0.1055
   79SOPE   C24 7105   0.566   2.140   6.782  0.2255  0.1714 -0.4253
   79SOPE   H4R 7106   0.547   2.031   6.787 -0.1075  0.2808  2.1721
   79SOPE   H4S 7107   0.482   2.213   6.791 -0.9295 -1.2635  0.8563
   79SOPE   C25 7108   0.635   2.168   6.648 -0.0132  1.4337  0.3567
   79SOPE   H5R 7109   0.689   2.264   6.632  1.1064  0.6883 -0.4798
   79SOPE   H5S 7110   0.714   2.091   6.640  0.0293  1.6359 -1.9143
   79SOPE   C26 7111   0.540   2.155   6.528 -0.1920  0.6705  0.1372
   79SOPE   H6R 7112   0.493   2.054   6.540 -1.0884  1.0636 -0.0081
   79SOPE   H6S 7113   0.457   2.227   6.544 -2.5044 -2.1002  1.7772
   79SOPE   C27 7114   0.606   2.192   6.392 -0.7308 -0.1542  0.3903
   79SOPE   H7R 7115   0.660   2.286   6.415 -1.0324 -0.2347  1.5030
   79SOPE   H7S 7116   0.685   2.119   6.364 -1.1144 -0.6176  0.4997
   79SOPE   C28 7117   0.513   2.225   6.280 -0.1089  0.4792  0.2155
   79SOPE   H8R 7118   0.434   2.300   6.306 -0.6920  0.7412 -2.0181
   79SOPE   H8S 7119   0.573   2.275   6.201 -1.2486 -1.5119 -2.0503
   79SOPE   C29 7120   0.447   2.108   6.211 -0.5098 -0.1033 -0.1870
   79SOPE   H91 7121   0.360   2.070   6.265 -0.6133  1.3523  0.7196
   79SOPE  C210 7122   0.476   2.043   6.094  0.1087 -0.1803 -0.8843
   79SOPE  H101 7123   0.423   1.950   6.069 -0.5640 -0.0029 -0.1713
   79SOPE  C211 7124   0.580   2.076   5.993  0.1456  0.1401  0.8341
   79SOPE  H11R 7125   0.644   1.986   5.986 -1.5465 -0.9743 -1.9871
   79SOPE  H11S 7126   0.639   2.160   6.036  0.6786 -1.2210  2.8833
   79SOPE  C212 7127   0.548   2.097   5.849 -0.1045  0.4218  0.1452
   79SOPE  H12R 7128   0.501   2.005   5.808  1.5939  0.2171 -1.4469
   79SOPE  H12S 7129   0.643   2.107   5.793 -0.2871 -0.2362 -0.3046
   79SOPE  C213 7130   0.467   2.224   5.816  0.2093 -0.3056 -0.0818
   79SOPE  H13R 7131   0.493   2.241   5.710  1.4013 -2.2993 -0.1652
   79SOPE  H13S 7132   0.507   2.303   5.883 -0.4296 -0.8853  1.0249
   79SOPE  C214 7133   0.313   2.214   5.812  0.5779  0.0135 -0.3966
   79SOPE  H14R 7134   0.271   2.227   5.914 -1.2226  0.2384 -1.1318
   79SOPE  H14S 7135   0.291   2.112   5.774  1.4621 -0.5586  0.5991
   79SOPE  C215 7136   0.239   2.311   5.723 -0.1230  0.0032  0.8306
   79SOPE  H15R 7137   0.280   2.413   5.743 -0.4371  0.2898  0.0565
   79SOPE  H15S 7138   0.130   2.293   5.731 -0.5354 -1.3519 -4.3199
   79SOPE  C216 7139   0.263   2.279   5.570 -0.0440  0.4528 -0.9905
   79SOPE  H16R 7140   0.263   2.168   5.560  1.9157  0.3406 -0.1438
   79SOPE  H16S 7141   0.363   2.315   5.537 -0.5426  0.4321 -2.6140
   79SOPE  C217 7142   0.178   2.352   5.462  0.9275 -0.5448  0.3805
   79SOPE  H17R 7143   0.212   2.329   5.359 -3.2338 -0.4126 -1.2325
   79SOPE  H17S 7144   0.196   2.461   5.473  3.1718 -0.9665  1.2148
   79SOPE  C218 7145   0.029   2.327   5.469 -0.1631 -0.0953  0.2196
   79SOPE  H18R 7146  -0.006   2.343   5.574 -2.3105  2.8895 -0.8012
   79SOPE  H18S 7147   0.003   2.222   5.442  0.4220 -0.8870  2.4819
   79SOPE  H18T 7148  -0.026   2.398   5.403  2.1793  1.1616 -0.4802
   79SOPE   C33 7149   0.193   2.610   6.893 -0.3229  0.6510  0.4259
   79SOPE   H3X 7150   0.130   2.698   6.917 -0.6901  1.7951 -3.9517
   79SOPE   H3Y 7151   0.121   2.544   6.841 -0.4214  1.4641 -0.4995
   79SOPE   C34 7152   0.301   2.662   6.795  0.6467 -0.0735 -0.3948
   79SOPE   H4X 7153   0.379   2.726   6.842  0.0492  1.2825 -1.1701
   79SOPE   H4Y 7154   0.249   2.723   6.719 -0.0511 -0.1008  0.0566
   79SOPE   C35 7155   0.384   2.558   6.710 -0.3716  0.0807  0.8829
   79SOPE   H5X 7156   0.314   2.520   6.631 -1.0674  1.9064  0.5726
   79SOPE   H5Y 7157   0.415   2.478   6.780  0.3528  0.1744  0.6753
   79SOPE   C36 7158   0.497   2.631   6.626  0.0662 -0.0361 -0.3262
   79SOPE   H6X 7159   0.592   2.635   6.683 -0.2927 -2.4158  0.5687
   79SOPE   H6Y 7160   0.466   2.737   6.615  1.2830  0.2344 -1.4369
   79SOPE   C37 7161   0.529   2.561   6.498  0.1055 -0.1803 -0.0724
   79SOPE   H7X 7162   0.434   2.560   6.439 -0.6342  1.8174  0.9886
   79SOPE   H7Y 7163   0.563   2.459   6.527 -0.3985  0.0577  1.4643
   79SOPE   C38 7164   0.637   2.633   6.421 -0.1047 -0.1815  1.0536
   79SOPE   H8X 7165   0.730   2.608   6.477  0.3463  1.1519  0.9450
   79SOPE   H8Y 7166   0.630   2.744   6.419 -0.4812 -0.2074 -1.4231
   79SOPE   C39 7167   0.636   2.594   6.276 -0.4945 -0.5300 -0.6352
   79SOPE   H9X 7168   0.531   2.561   6.263 -1.3565  0.6165  2.6362
   79SOPE   H9Y 7169   0.696   2.502   6.262  0.4072 -0.2673  1.2481
   79SOPE  C310 7170   0.684   2.701   6.176 -0.3623  0.3911  0.0845
   79SOPE  H10X 7171   0.786   2.733   6.205  1.5490 -1.6258 -3.7026
   79SOPE  H10Y 7172   0.609   2.783   6.190  0.3122  1.1137 -0.4416
   79SOPE  C311 7173   0.697   2.658   6.037  0.2420 -0.4479  0.0669
   79SOPE  H11X 7174   0.597   2.623   6.003 -0.4611  0.7265  0.8703
   79SOPE  H11Y 7175   0.767   2.571   6.030  0.2582 -0.4412  0.1482
   79SOPE  C312 7176   0.748   2.765   5.948  0.2278 -0.3747  0.2116
   79SOPE  H12X 7177   0.698   2.863   5.969 -0.4694 -0.9770  1.4875
   79SOPE  H12Y 7178   0.723   2.736   5.843 -0.8324 -2.8723  1.0771
   79SOPE  C313 7179   0.898   2.766   5.952  0.4093  0.0670 -0.2642
   79SOPE  H13X 7180   0.939   2.663   5.963  1.6767  0.7686  2.3184
   79SOPE  H13Y 7181   0.924   2.823   6.044 -0.9287  1.8497 -0.9187
   79SOPE  C314 7182   0.962   2.834   5.829  0.2511 -0.6922 -0.1958
   79SOPE  H14X 7183   0.918   2.936   5.825  0.1249 -0.6988  0.7661
   79SOPE  H14Y 7184   0.947   2.771   5.739  1.4532 -0.3894 -0.6379
   79SOPE  C315 7185   1.113   2.855   5.845  0.3847  0.4958  0.2428
   79SOPE  H15X 7186   1.150   2.760   5.887 -0.9036 -0.6264 -1.0153
   79SOPE  H15Y 7187   1.134   2.931   5.923  1.3750 -0.8967  1.3572
   79SOPE  C316 7188   1.165   2.901   5.709 -0.0319 -0.4580 -0.0840
   79SOPE  H16X 7189   1.152   3.011   5.697 -0.5944 -0.5876 -0.7382
   79SOPE  H16Y 7190   1.113   2.858   5.620 -0.4623 -2.6428  1.1587
   79SOPE  C317 7191   1.314   2.862   5.692  0.4027  0.1286 -0.6512
   79SOPE  H17X 7192   1.343   2.866   5.585 -1.6526 -0.3828 -1.2755
   79SOPE  H17Y 7193   1.328   2.753   5.708  0.0418  0.2990  1.0363
   79SOPE  C318 7194   1.413   2.923   5.791 -0.0341 -0.6061  0.0705
   79SOPE  H18X 7195   1.400   2.897   5.898  0.0441  3.9713  1.4279
   79SOPE  H18Y 7196   1.389   3.032   5.786 -0.9624 -0.8317 -0.9860
   79SOPE  H18Z 7197   1.518   2.899   5.765 -0.2362  1.1922 -3.0034
   80SOPE     N 7198   0.483   4.712   7.350 -0.3442  0.3460  0.0869
   80SOPE   HN1 7199   0.530   4.701   7.258  2.4864 -0.6869  1.5455
   80SOPE   HN2 7200   0.406   4.782   7.353  0.1224  0.8763 -0.1225
   80SOPE   HN3 7201   0.555   4.750   7.414 -0.3883  0.8313 -0.1396
   80SOPE   C12 7202   0.421   4.581   7.398 -0.3029 -0.8192  0.0797
   80SOPE  H12A 7203   0.356   4.601   7.486  1.0633 -2.5936  1.5998
   80SOPE  H12B 7204   0.496   4.517   7.450  1.2940  1.6318  1.0011
   80SOPE   C11 7205   0.340   4.507   7.285 -0.2858 -0.7530 -0.6946
   80SOPE  H11A 7206   0.402   4.509   7.193 -0.8068  1.5927 -1.0608
   80SOPE  H11B 7207   0.258   4.579   7.261  0.3124 -0.2928 -1.4044
   80SOPE     P 7208   0.159   4.343   7.392 -0.2710  0.2930  0.0264
   80SOPE   O13 7209   0.146   4.415   7.524  0.3127  0.9263 -0.7747
   80SOPE   O14 7210   0.168   4.195   7.401  0.2594  0.1804 -0.3615
   80SOPE   O12 7211   0.307   4.382   7.340 -0.0287  0.4907  0.0545
   80SOPE   O11 7212   0.053   4.392   7.283  0.4559  0.3954  0.1326
   80SOPE    C1 7213  -0.027   4.295   7.215 -0.0067 -0.5101 -0.5242
   80SOPE    HA 7214  -0.091   4.239   7.286  1.5503 -1.2078  0.3884
   80SOPE    HB 7215   0.032   4.220   7.156  1.1309 -2.0495  2.3657
   80SOPE    C2 7216  -0.125   4.374   7.121  0.4827 -0.0153  0.2990
   80SOPE    HS 7217  -0.197   4.306   7.071  2.0222 -0.1807 -1.8323
   80SOPE   O21 7218  -0.061   4.453   7.010 -0.3333  0.4671  0.6287
   80SOPE   C21 7219   0.002   4.372   6.926 -0.7012 -0.2942 -0.4819
   80SOPE   O22 7220   0.016   4.252   6.932  1.3361 -0.2637 -0.2221
   80SOPE   C22 7221   0.071   4.447   6.806  0.1657  0.0753  0.5054
   80SOPE   H2R 7222   0.177   4.414   6.809  0.0276 -0.5725 -1.1353
   80SOPE   H2S 7223   0.068   4.557   6.823  0.7729  0.1287  0.2712
   80SOPE    C3 7224  -0.207   4.469   7.214  0.0779  0.1223 -0.9085
   80SOPE    HX 7225  -0.133   4.549   7.236  0.7156 -0.9380  0.9960
   80SOPE    HY 7226  -0.238   4.419   7.308  0.2550  0.9389 -0.4092
   80SOPE   O31 7227  -0.319   4.524   7.151  0.0237  0.5987  0.3301
   80SOPE   C31 7228  -0.338   4.660   7.154  0.5555  0.1838 -0.1105
   80SOPE   O32 7229  -0.273   4.748   7.211 -0.8150  0.3312 -0.0373
   80SOPE   C32 7230  -0.451   4.701   7.067  0.2684  0.2947  0.4846
   80SOPE   H2X 7231  -0.457   4.812   7.073  3.2156  0.5561 -0.1778
   80SOPE   H2Y 7232  -0.544   4.654   7.106  0.5116 -1.7214 -1.1958
   80SOPE   C23 7233   0.005   4.422   6.667 -0.5956  0.0674  0.9075
   80SOPE   H3R 7234  -0.103   4.444   6.659 -0.2715  1.3091 -0.4950
   80SOPE   H3S 7235   0.008   4.312   6.650 -1.9271 -0.3454  3.0019
   80SOPE   C24 7236   0.073   4.503   6.552  0.4432  0.0373 -0.4414
   80SOPE   H4R 7237   0.070   4.611   6.578  1.5728  0.3078 -1.3369
   80SOPE   H4S 7238   0.178   4.467   6.553  0.8937  1.2447 -1.5630
   80SOPE   C25 7239   0.006   4.491   6.411  0.5105  0.8123 -0.3130
   80SOPE   H5R 7240  -0.104   4.506   6.419  0.2865 -0.2410 -1.2285
   80SOPE   H5S 7241   0.036   4.582   6.354 -0.7560  2.2462  1.1856
   80SOPE   C26 7242   0.048   4.354   6.358  0.3613  0.0705 -0.2934
   80SOPE   H6R 7243   0.067   4.274   6.433 -0.8218 -0.6752 -0.7493
   80SOPE   H6S 7244  -0.027   4.315   6.285  0.6655  0.1286 -0.6408
   80SOPE   C27 7245   0.177   4.365   6.287  0.0915  0.2627  0.0608
   80SOPE   H7R 7246   0.257   4.403   6.354 -4.3417  3.6676  4.0528
   80SOPE   H7S 7247   0.225   4.267   6.264  2.4879  0.7023  2.5824
   80SOPE   C28 7248   0.153   4.441   6.153  0.0214  0.3787  0.5117
   80SOPE   H8R 7249   0.071   4.380   6.108 -1.0709  0.9596  1.6344
   80SOPE   H8S 7250   0.122   4.546   6.169 -3.4860 -0.1797 -1.4090
   80SOPE   C29 7251   0.276   4.428   6.065 -0.9447 -0.6335 -0.3428
   80SOPE   H91 7252   0.361   4.482   6.109 -1.3280 -0.7014  0.4905
   80SOPE  C210 7253   0.292   4.374   5.944 -0.0269  0.3545  0.4258
   80SOPE  H101 7254   0.384   4.408   5.895  0.4729  1.7800  2.2647
   80SOPE  C211 7255   0.195   4.288   5.862  0.6063  0.4773  0.3102
   80SOPE  H11R 7256   0.100   4.276   5.918  1.3370  0.1531  1.5181
   80SOPE  H11S 7257   0.230   4.183   5.849 -1.0808 -0.6819  3.9312
   80SOPE  C212 7258   0.170   4.340   5.721  0.0450 -0.5145  0.1453
   80SOPE  H12R 7259   0.135   4.445   5.734  2.2932  0.4274 -0.8408
   80SOPE  H12S 7260   0.094   4.274   5.676 -0.2920 -0.0894  0.0769
   80SOPE  C213 7261   0.282   4.337   5.622  0.2923 -0.4319  0.4946
   80SOPE  H13R 7262   0.275   4.233   5.585  1.4243 -1.2529  2.4475
   80SOPE  H13S 7263   0.379   4.350   5.675  0.5368  0.6314 -0.1703
   80SOPE  C214 7264   0.279   4.436   5.504 -0.4409 -0.2563 -0.1205
   80SOPE  H14R 7265   0.364   4.414   5.435  0.0184  0.3608  0.2409
   80SOPE  H14S 7266   0.294   4.539   5.541  3.5737 -1.4972  2.4741
   80SOPE  C215 7267   0.150   4.428   5.415 -0.2199 -0.8072 -0.2794
   80SOPE  H15R 7268   0.062   4.445   5.482  0.3131 -0.3733  0.3174
   80SOPE  H15S 7269   0.131   4.324   5.380 -0.2163 -0.4951 -1.2509
   80SOPE  C216 7270   0.165   4.500   5.278  0.0610 -0.9273  0.6655
   80SOPE  H16R 7271   0.276   4.508   5.272 -0.0570  0.4486 -0.0574
   80SOPE  H16S 7272   0.108   4.594   5.262 -3.1291 -2.8942 -0.4606
   80SOPE  C217 7273   0.125   4.419   5.154 -0.0432  0.3252  0.4369
   80SOPE  H17R 7274   0.182   4.324   5.163  0.0392  0.3151 -0.1070
   80SOPE  H17S 7275   0.155   4.472   5.061  1.2116 -1.3532 -0.1621
   80SOPE  C218 7276  -0.026   4.397   5.137  0.3819 -0.1463  0.4217
   80SOPE  H18R 7277  -0.068   4.391   5.239 -0.4259 -2.6622  0.0105
   80SOPE  H18S 7278  -0.046   4.304   5.079  0.1059  0.0794  0.1534
   80SOPE  H18T 7279  -0.083   4.481   5.092 -1.1183 -1.1454  0.3665
   80SOPE   C33 7280  -0.432   4.664   6.916  0.5866  0.0766 -0.3046
   80SOPE   H3X 7281  -0.435   4.553   6.911  0.5907 -0.0007  0.9428
   80SOPE   H3Y 7282  -0.335   4.711   6.887 -0.1658  2.2777  0.5558
   80SOPE   C34 7283  -0.543   4.707   6.819  0.9503  0.3479 -0.6836
   80SOPE   H4X 7284  -0.549   4.817   6.814 -0.0610  0.2680 -1.6849
   80SOPE   H4Y 7285  -0.640   4.668   6.856  1.4506  0.7243  1.1029
   80SOPE   C35 7286  -0.527   4.638   6.687 -0.5453  0.4191  0.2211
   80SOPE   H5X 7287  -0.619   4.639   6.624  1.7508  2.2094 -3.4764
   80SOPE   H5Y 7288  -0.503   4.532   6.708 -0.9405  0.2894  0.0330
   80SOPE   C36 7289  -0.413   4.707   6.603  0.2548  0.6446  0.1586
   80SOPE   H6X 7290  -0.318   4.686   6.657  0.6757 -0.4285 -0.9618
   80SOPE   H6Y 7291  -0.436   4.815   6.589  2.4649  1.1335 -0.0011
   80SOPE   C37 7292  -0.401   4.644   6.464  0.0526  0.3937 -0.7784
   80SOPE   H7X 7293  -0.503   4.621   6.426 -0.2954 -0.5821  0.6755
   80SOPE   H7Y 7294  -0.348   4.547   6.475 -2.6202 -1.0968 -0.2944
   80SOPE   C38 7295  -0.316   4.731   6.375  0.7358 -0.0353  0.6693
   80SOPE   H8X 7296  -0.214   4.741   6.419  0.6294 -0.6891  1.0896
   80SOPE   H8Y 7297  -0.370   4.827   6.359  0.0489 -0.4566  0.4122
   80SOPE   C39 7298  -0.300   4.665   6.234 -0.0201  0.3620 -0.7491
   80SOPE   H9X 7299  -0.390   4.681   6.170 -0.8757  0.1676  0.3677
   80SOPE   H9Y 7300  -0.270   4.558   6.244  1.5760  0.8782  0.2625
   80SOPE  C310 7301  -0.178   4.732   6.163 -0.4006  0.5935 -0.1568
   80SOPE  H10X 7302  -0.094   4.733   6.236 -0.4499  0.2999 -0.0924
   80SOPE  H10Y 7303  -0.202   4.837   6.136  0.1003  0.3426 -1.6408
   80SOPE  C311 7304  -0.134   4.669   6.027  0.1143  0.5470 -0.6494
   80SOPE  H11X 7305  -0.105   4.567   6.061  1.1123  1.0724  0.1368
   80SOPE  H11Y 7306  -0.037   4.715   5.998  1.2423 -1.0378  0.3925
   80SOPE  C312 7307  -0.231   4.673   5.917 -0.3649  0.3695  0.3034
   80SOPE  H12X 7308  -0.260   4.779   5.903  0.4497  0.7468  1.3128
   80SOPE  H12Y 7309  -0.321   4.614   5.944 -0.5373  0.7390  0.5534
   80SOPE  C313 7310  -0.179   4.633   5.774  0.8304  0.2501 -0.2055
   80SOPE  H13X 7311  -0.134   4.532   5.761 -0.1922  0.0103 -2.2038
   80SOPE  H13Y 7312  -0.092   4.697   5.747  0.1550  1.3808  0.2460
   80SOPE  C314 7313  -0.290   4.634   5.671  0.5409  0.6973  0.6023
   80SOPE  H14X 7314  -0.316   4.742   5.668 -0.9577  0.4364  2.3316
   80SOPE  H14Y 7315  -0.380   4.582   5.710 -1.0614  0.9300 -2.4609
   80SOPE  C315 7316  -0.242   4.569   5.537 -0.0102 -0.7693 -0.2044
   80SOPE  H15X 7317  -0.264   4.461   5.544  0.1088 -0.9184 -1.8454
   80SOPE  H15Y 7318  -0.133   4.587   5.521 -0.0682  0.2422  0.4040
   80SOPE  C316 7319  -0.294   4.646   5.410 -0.3877 -0.5145  0.8431
   80SOPE  H16X 7320  -0.254   4.602   5.317 -2.4696 -0.1503 -0.2802
   80SOPE  H16Y 7321  -0.256   4.750   5.422  1.8942 -1.2618  0.5021
   80SOPE  C317 7322  -0.443   4.656   5.393  0.6866 -0.2896  0.2708
   80SOPE  H17X 7323  -0.463   4.752   5.341  0.7575 -1.3423 -1.7982
   80SOPE  H17Y 7324  -0.492   4.652   5.492  0.4974  0.7142  0.2255
   80SOPE  C318 7325  -0.497   4.542   5.306 -0.2957 -0.5976  0.1066
   80SOPE  H18X 7326  -0.444   4.557   5.210  0.4961  1.5022  0.8338
   80SOPE  H18Y 7327  -0.607   4.556   5.312  0.0025  1.4427  4.1874
   80SOPE  H18Z 7328  -0.462   4.446   5.350  2.0565  0.2712  0.2329
   81SOPE     N 7329   1.371   2.514   7.538 -0.3681 -0.1306  0.5678
   81SOPE   HN1 7330   1.291   2.538   7.476 -0.4813 -0.9127  0.4030
   81SOPE   HN2 7331   1.455   2.556   7.492 -1.6214  0.3548 -1.4272
   81SOPE   HN3 7332   1.377   2.413   7.560 -0.8823  0.0158  1.4285
   81SOPE   C12 7333   1.357   2.578   7.671  0.4495 -0.1781  0.3405
   81SOPE  H12A 7334   1.275   2.524   7.724 -1.4054  3.5537  1.6153
   81SOPE  H12B 7335   1.318   2.681   7.656  0.4102 -0.3103 -0.4624
   81SOPE   C11 7336   1.486   2.573   7.763 -0.0038 -0.3708 -0.0037
   81SOPE  H11A 7337   1.532   2.472   7.769  3.2613  0.9684 -0.3876
   81SOPE  H11B 7338   1.458   2.613   7.863  3.2515  1.3460  0.3548
   81SOPE     P 7339   1.725   2.679   7.753  0.4529  0.4723  0.1112
   81SOPE   O13 7340   1.791   2.544   7.743  1.0389 -0.6937  0.3369
   81SOPE   O14 7341   1.750   2.740   7.886  0.3988  0.3554  0.0535
   81SOPE   O12 7342   1.577   2.668   7.711 -0.2271 -0.2386 -0.2815
   81SOPE   O11 7343   1.786   2.779   7.646 -0.0877  0.1980  0.2614
   81SOPE    C1 7344   1.707   2.889   7.599 -0.1576 -1.0235 -0.2422
   81SOPE    HA 7345   1.763   2.985   7.601  0.3823 -1.2373  4.1346
   81SOPE    HB 7346   1.621   2.910   7.665  0.6126  1.1910  0.1327
   81SOPE    C2 7347   1.649   2.871   7.450 -0.1277 -0.2293  0.2455
   81SOPE    HS 7348   1.598   2.772   7.449  1.8633 -1.3222 -0.0392
   81SOPE   O21 7349   1.759   2.869   7.357  0.3218 -0.3447 -0.2814
   81SOPE   C21 7350   1.747   2.798   7.245  0.4938  0.7127  0.1177
   81SOPE   O22 7351   1.652   2.721   7.222 -0.1889 -0.3042  0.4036
   81SOPE   C22 7352   1.881   2.788   7.169  0.4797  0.3417 -0.2628
   81SOPE   H2R 7353   1.952   2.764   7.251 -0.8765  0.9520  1.1475
   81SOPE   H2S 7354   1.896   2.886   7.120 -0.1937  0.7629  0.3373
   81SOPE    C3 7355   1.552   2.983   7.411  0.4468 -0.2690  1.3366
   81SOPE    HX 7356   1.613   3.075   7.399 -0.3065 -0.0970 -2.6512
   81SOPE    HY 7357   1.483   3.001   7.495 -1.1932  1.4033 -0.2544
   81SOPE   O31 7358   1.489   2.957   7.283  0.0954  0.7765  0.2258
   81SOPE   C31 7359   1.389   2.868   7.283 -0.2765  0.0264  0.3482
   81SOPE   O32 7360   1.334   2.824   7.380 -0.4725  0.0591 -0.2513
   81SOPE   C32 7361   1.345   2.850   7.134 -0.8842  0.5526 -0.5778
   81SOPE   H2X 7362   1.410   2.918   7.075  1.5274 -0.4606  0.7948
   81SOPE   H2Y 7363   1.249   2.906   7.130 -0.7167  0.7685 -3.2287
   81SOPE   C23 7364   1.881   2.663   7.072 -0.1651  0.0054  0.1195
   81SOPE   H3R 7365   1.782   2.662   7.022  0.3477  0.3273 -0.9284
   81SOPE   H3S 7366   1.890   2.577   7.141 -2.6350 -0.3748  0.0658
   81SOPE   C24 7367   2.003   2.653   6.976 -0.6051 -0.0776 -0.3948
   81SOPE   H4R 7368   2.081   2.686   7.048 -0.9483 -0.0550 -0.0257
   81SOPE   H4S 7369   2.024   2.545   6.961 -0.1558 -0.9462  4.5757
   81SOPE   C25 7370   1.992   2.728   6.843  0.5797  0.2388 -0.3261
   81SOPE   H5R 7371   1.971   2.834   6.870 -0.9656  0.2239 -1.3648
   81SOPE   H5S 7372   2.089   2.726   6.788  0.2618  0.4866 -0.9135
   81SOPE   C26 7373   1.885   2.676   6.753  0.2189  0.4454  0.1756
   81SOPE   H6R 7374   1.886   2.565   6.751  3.4862  0.3845 -0.3381
   81SOPE   H6S 7375   1.785   2.703   6.792  1.0233  0.0577  2.6378
   81SOPE   C27 7376   1.893   2.714   6.604  0.3400 -0.4119  0.7364
   81SOPE   H7R 7377   1.882   2.824   6.592  0.7483 -0.4786 -0.4097
   81SOPE   H7S 7378   1.989   2.678   6.563  0.7733  1.5252 -0.0817
   81SOPE   C28 7379   1.771   2.654   6.528 -0.7092  0.3388 -0.2064
   81SOPE   H8R 7380   1.761   2.547   6.556 -2.5775  0.6304  0.3163
   81SOPE   H8S 7381   1.684   2.707   6.571 -0.6353  0.0041  0.3573
   81SOPE   C29 7382   1.798   2.664   6.381  0.4408 -0.0834 -0.9790
   81SOPE   H91 7383   1.806   2.765   6.340  0.4932  0.5249  0.4501
   81SOPE  C210 7384   1.841   2.560   6.304 -0.0889 -0.2888 -0.3446
   81SOPE  H101 7385   1.873   2.579   6.201 -0.1629 -3.7570 -1.1580
   81SOPE  C211 7386   1.863   2.420   6.339  0.1132 -1.4950 -0.3236
   81SOPE  H11R 7387   1.796   2.348   6.288 -1.5827 -1.1857  1.3150
   81SOPE  H11S 7388   1.855   2.408   6.450 -2.4267  2.5691  0.1600
   81SOPE  C212 7389   2.002   2.363   6.300 -0.3691 -0.4335  0.4856
   81SOPE  H12R 7390   2.017   2.396   6.195 -0.3034  1.9385  1.2022
   81SOPE  H12S 7391   2.007   2.253   6.315 -0.8353 -0.7353 -1.2983
   81SOPE  C213 7392   2.110   2.430   6.381 -0.3677 -0.0843  0.3649
   81SOPE  H13R 7393   2.082   2.422   6.488  1.4167 -1.6181  0.7718
   81SOPE  H13S 7394   2.113   2.539   6.358 -0.7381  0.0256  0.8138
   81SOPE  C214 7395   2.261   2.379   6.360  0.1811  0.6991 -0.3897
   81SOPE  H14R 7396   2.276   2.272   6.388 -2.3118 -0.5225 -3.1457
   81SOPE  H14S 7397   2.328   2.429   6.433  1.3320 -0.9571 -0.2413
   81SOPE  C215 7398   2.315   2.401   6.226  0.0382  0.4974  0.6254
   81SOPE  H15R 7399   2.318   2.510   6.202  3.9143 -0.0556 -2.4231
   81SOPE  H15S 7400   2.248   2.359   6.148 -0.7315  1.5884  0.6772
   81SOPE  C216 7401   2.452   2.340   6.196  0.1095  0.1119  0.1913
   81SOPE  H16R 7402   2.461   2.239   6.241  0.4790  0.5666  1.1769
   81SOPE  H16S 7403   2.530   2.404   6.243 -1.2551  1.0658  1.2481
   81SOPE  C217 7404   2.474   2.329   6.045  1.0472 -0.3424  0.2506
   81SOPE  H17R 7405   2.429   2.240   5.997 -1.0224 -0.0968  1.6091
   81SOPE  H17S 7406   2.584   2.310   6.037  0.6941 -2.6341  0.2736
   81SOPE  C218 7407   2.437   2.456   5.965  0.4028  0.5130  0.7593
   81SOPE  H18R 7408   2.329   2.484   5.971  0.1149  0.5374 -2.6543
   81SOPE  H18S 7409   2.466   2.442   5.859  0.0226 -1.4647  0.8801
   81SOPE  H18T 7410   2.486   2.548   6.002  2.1231  0.1769 -0.5847
   81SOPE   C33 7411   1.309   2.716   7.083  0.4129  0.1028 -0.5508
   81SOPE   H3X 7412   1.241   2.681   7.163 -0.9021 -2.0376 -2.4960
   81SOPE   H3Y 7413   1.395   2.646   7.087 -2.1053 -3.2984 -1.1950
   81SOPE   C34 7414   1.236   2.706   6.945  0.9006 -0.4842 -0.7380
   81SOPE   H4X 7415   1.161   2.788   6.944  2.5632  1.1222 -2.0525
   81SOPE   H4Y 7416   1.182   2.610   6.933 -0.4243 -0.2200  2.3676
   81SOPE   C35 7417   1.326   2.722   6.821  0.8918  0.1291  0.3878
   81SOPE   H5X 7418   1.428   2.677   6.826  0.4344 -1.0004 -0.0433
   81SOPE   H5Y 7419   1.333   2.833   6.818 -1.4259  0.3250 -1.5666
   81SOPE   C36 7420   1.257   2.666   6.694 -0.2256 -0.7697  0.1018
   81SOPE   H6X 7421   1.152   2.701   6.686 -0.1837 -0.3726  1.1570
   81SOPE   H6Y 7422   1.244   2.558   6.713  1.0648 -0.7748  1.1580
   81SOPE   C37 7423   1.342   2.693   6.570  0.6514  0.1685 -0.0711
   81SOPE   H7X 7424   1.446   2.667   6.599  0.4922 -1.1583 -0.6167
   81SOPE   H7Y 7425   1.325   2.802   6.557  0.4097  0.2259  0.6929
   81SOPE   C38 7426   1.296   2.620   6.438 -0.2765 -0.2669 -0.3038
   81SOPE   H8X 7427   1.194   2.653   6.409 -0.5283  0.5447  1.3885
   81SOPE   H8Y 7428   1.277   2.512   6.461  0.7613 -0.3148  0.3654
   81SOPE   C39 7429   1.400   2.633   6.326  0.0072 -0.7397 -0.2931
   81SOPE   H9X 7430   1.489   2.570   6.347  0.3568  0.2198  1.1648
   81SOPE   H9Y 7431   1.448   2.732   6.311 -1.7991  0.1546 -0.3825
   81SOPE  C310 7432   1.339   2.589   6.192  0.6635 -0.3177  0.3136
   81SOPE  H10X 7433   1.271   2.670   6.158 -0.0893 -0.5123  1.3077
   81SOPE  H10Y 7434   1.282   2.495   6.210 -1.4132  1.0067  1.0800
   81SOPE  C311 7435   1.453   2.559   6.093  0.7926 -0.4050 -0.0101
   81SOPE  H11X 7436   1.528   2.488   6.134 -0.1416 -0.9601  0.7885
   81SOPE  H11Y 7437   1.498   2.659   6.074  0.2061 -0.4501 -1.7534
   81SOPE  C312 7438   1.404   2.474   5.970 -0.6241  0.2446 -0.4107
   81SOPE  H12X 7439   1.295   2.481   5.954 -0.7230 -0.7962 -0.2180
   81SOPE  H12Y 7440   1.421   2.365   5.982 -2.5866 -0.0769 -0.2389
   81SOPE  C313 7441   1.465   2.508   5.836 -0.4795 -0.2364  0.5252
   81SOPE  H13X 7442   1.422   2.599   5.788 -3.3743 -0.7542  1.9474
   81SOPE  H13Y 7443   1.431   2.431   5.763 -0.9457  0.5741 -0.1447
   81SOPE  C314 7444   1.612   2.503   5.832 -0.3823  0.4440  0.0638
   81SOPE  H14X 7445   1.647   2.415   5.889  1.8574  2.2425  1.6584
   81SOPE  H14Y 7446   1.650   2.585   5.896  2.1159 -1.0156  0.5850
   81SOPE  C315 7447   1.670   2.498   5.687  0.0800  0.1505 -0.3306
   81SOPE  H15X 7448   1.645   2.596   5.641 -1.2740 -0.7289 -1.5416
   81SOPE  H15Y 7449   1.612   2.418   5.636 -0.2835  0.8626 -1.0568
   81SOPE  C316 7450   1.819   2.464   5.682  0.2141 -0.0331 -0.4042
   81SOPE  H16X 7451   1.839   2.368   5.734  0.7907 -0.5728 -1.6106
   81SOPE  H16Y 7452   1.858   2.541   5.753 -2.2228 -0.0989  1.1583
   81SOPE  C317 7453   1.879   2.481   5.546  0.6894  0.1645  0.1551
   81SOPE  H17X 7454   1.858   2.579   5.498 -2.3353 -1.0489 -1.3030
   81SOPE  H17Y 7455   1.841   2.399   5.481 -0.3600  0.6813  0.0879
   81SOPE  C318 7456   2.031   2.470   5.571 -1.1053  0.1856  0.5010
   81SOPE  H18X 7457   2.083   2.482   5.474 -0.9937 -0.5342  0.4618
   81SOPE  H18Y 7458   2.065   2.367   5.598  0.5036  0.4490 -0.3614
   81SOPE  H18Z 7459   2.078   2.543   5.640  0.9832  0.9813 -1.6455
   82SOPE     N 7460   5.198   1.463   7.789 -0.2129 -0.4315  0.2914
   82SOPE   HN1 7461   5.104   1.487   7.750 -1.2378 -0.1028  2.7544
   82SOPE   HN2 7462   5.171   1.425   7.882  0.6768  0.7909  1.0834
   82SOPE   HN3 7463   5.262   1.545   7.793  0.3056 -0.8710  1.1409
   82SOPE   C12 7464   5.258   1.353   7.700  0.3523  0.7914  0.1080
   82SOPE  H12A 7465   5.347   1.309   7.750  0.2432 -0.4885 -0.7823
   82SOPE  H12B 7466   5.291   1.412   7.612  0.6131  2.8128  1.4798
   82SOPE   C11 7467   5.147   1.248   7.671 -0.3901 -0.1533 -0.2790
   82SOPE  H11A 7468   5.203   1.168   7.617 -0.5735 -0.6560  0.2640
   82SOPE  H11B 7469   5.065   1.298   7.616 -3.3604  0.0045  3.8107
   82SOPE     P 7470   5.091   1.053   7.836 -0.0491 -0.0845  0.0286
   82SOPE   O13 7471   4.963   1.024   7.904 -0.4597  0.2506 -0.5079
   82SOPE   O14 7472   5.222   1.022   7.903 -0.6178  0.0530 -0.0494
   82SOPE   O12 7473   5.092   1.203   7.793 -0.0645  0.2091 -0.2274
   82SOPE   O11 7474   5.085   0.982   7.696 -0.0401  0.6890 -0.1480
   82SOPE    C1 7475   5.152   0.854   7.688 -0.1005  0.1720 -0.0238
   82SOPE    HA 7476   5.105   0.778   7.755  0.0732  0.0587 -0.0315
   82SOPE    HB 7477   5.261   0.867   7.698 -0.1701 -0.2024  1.3314
   82SOPE    C2 7478   5.130   0.787   7.548  0.1911 -0.3133 -0.3661
   82SOPE    HS 7479   5.180   0.688   7.552  1.0673  0.0615 -1.4025
   82SOPE   O21 7480   5.172   0.875   7.441 -0.8703 -0.3841 -0.2135
   82SOPE   C21 7481   5.301   0.869   7.419  0.1777  0.2747  0.1453
   82SOPE   O22 7482   5.382   0.811   7.485 -0.3830  0.0499  0.4133
   82SOPE   C22 7483   5.343   0.951   7.296 -0.2140  0.2522  0.1997
   82SOPE   H2R 7484   5.324   1.058   7.321 -0.1506  0.2432  0.2892
   82SOPE   H2S 7485   5.273   0.910   7.220  0.8396 -0.0367 -0.6467
   82SOPE    C3 7486   4.978   0.768   7.536 -0.3406  0.3382 -0.8347
   82SOPE    HX 7487   4.943   0.874   7.540  0.1791  0.4877  0.0308
   82SOPE    HY 7488   4.934   0.720   7.625 -0.7297 -0.0672 -1.2462
   82SOPE   O31 7489   4.937   0.703   7.417  0.4730 -0.0515 -0.7442
   82SOPE   C31 7490   4.947   0.565   7.425  0.1712 -0.3791 -0.0745
   82SOPE   O32 7491   4.981   0.504   7.524 -0.1494  0.0493 -0.0080
   82SOPE   C32 7492   4.925   0.500   7.285  0.1878  0.6346  0.3025
   82SOPE   H2X 7493   4.966   0.551   7.195 -0.3860 -0.6093 -0.6869
   82SOPE   H2Y 7494   4.814   0.496   7.281  0.2437 -2.2713 -1.4654
   82SOPE   C23 7495   5.488   0.933   7.235  0.3896  0.5199  0.9639
   82SOPE   H3R 7496   5.519   0.826   7.244 -1.6351 -0.1057  0.8854
   82SOPE   H3S 7497   5.566   0.980   7.299  1.1678 -1.9081  1.9262
   82SOPE   C24 7498   5.499   0.980   7.086  0.0514 -0.0216  0.2201
   82SOPE   H4R 7499   5.411   0.945   7.028  0.6857 -0.9869 -0.1857
   82SOPE   H4S 7500   5.500   1.092   7.085  1.7117 -0.0172 -0.5984
   82SOPE   C25 7501   5.632   0.940   7.022  0.0243  0.0350  0.0819
   82SOPE   H5R 7502   5.710   0.983   7.088  0.5297 -0.1000 -0.4147
   82SOPE   H5S 7503   5.653   0.831   7.016  1.3611  0.3401 -1.5423
   82SOPE   C26 7504   5.643   0.989   6.874 -0.2777 -0.1461  0.0411
   82SOPE   H6R 7505   5.628   1.099   6.869  1.4426  0.0893 -0.8565
   82SOPE   H6S 7506   5.748   0.976   6.840 -0.3191 -3.5257  0.8413
   82SOPE   C27 7507   5.553   0.931   6.764  0.6347 -0.5993  0.1684
   82SOPE   H7R 7508   5.589   0.838   6.714  2.2960 -0.2393  0.6365
   82SOPE   H7S 7509   5.458   0.895   6.809  0.8616 -0.8587  0.4421
   82SOPE   C28 7510   5.503   1.024   6.645 -0.3882 -0.2258 -0.3704
   82SOPE   H8R 7511   5.445   0.959   6.575  0.2854  0.8670 -1.9982
   82SOPE   H8S 7512   5.438   1.094   6.701  0.5868  2.2545 -2.1621
   82SOPE   C29 7513   5.623   1.081   6.583 -0.3714 -0.0952  0.3847
   82SOPE   H91 7514   5.633   1.190   6.591  1.1059 -0.0994 -0.9491
   82SOPE  C210 7515   5.728   1.033   6.515  0.0503 -0.0579  0.3591
   82SOPE  H101 7516   5.807   1.099   6.475  0.4358 -0.8312 -0.1905
   82SOPE  C211 7517   5.756   0.886   6.491  0.5127  0.0165  0.2361
   82SOPE  H11R 7518   5.787   0.875   6.385  1.6639  0.7731  0.4746
   82SOPE  H11S 7519   5.662   0.827   6.500  1.2979 -1.3362 -0.1405
   82SOPE  C212 7520   5.851   0.825   6.597 -0.2937  0.2304 -0.3175
   82SOPE  H12R 7521   5.824   0.864   6.698  1.3594  0.5864  0.0170
   82SOPE  H12S 7522   5.960   0.843   6.581 -0.8111  2.6898 -1.4252
   82SOPE  C213 7523   5.837   0.676   6.600  0.5586 -0.3100  0.2272
   82SOPE  H13R 7524   5.860   0.630   6.502 -0.2022  0.1368 -0.1605
   82SOPE  H13S 7525   5.734   0.647   6.629  1.1936  0.0377  3.2373
   82SOPE  C214 7526   5.939   0.623   6.694  0.1454  0.2740 -0.5828
   82SOPE  H14R 7527   6.027   0.689   6.707  0.1881  0.9193 -3.4449
   82SOPE  H14S 7528   5.984   0.524   6.673 -0.3880  0.0763 -0.8352
   82SOPE  C215 7529   5.878   0.620   6.838 -0.8634 -0.0868 -0.2160
   82SOPE  H15R 7530   5.795   0.547   6.846  0.8586 -1.9196  3.7929
   82SOPE  H15S 7531   5.845   0.721   6.870 -2.0385 -0.2993 -0.6875
   82SOPE  C216 7532   5.996   0.579   6.936  0.1598  0.3632  0.2565
   82SOPE  H16R 7533   6.088   0.641   6.936  1.8388 -1.9166  2.2557
   82SOPE  H16S 7534   6.025   0.475   6.909  1.0557  0.3665  1.1444
   82SOPE  C217 7535   5.938   0.569   7.085 -0.2533  0.3737  0.7040
   82SOPE  H17R 7536   5.849   0.504   7.068  1.0978 -0.7374 -3.0436
   82SOPE  H17S 7537   5.899   0.669   7.113  2.7222  1.6222  0.7536
   82SOPE  C218 7538   6.034   0.498   7.176 -0.1786 -0.0430 -0.4494
   82SOPE  H18R 7539   6.105   0.578   7.206  0.0503  0.1832 -1.5724
   82SOPE  H18S 7540   6.099   0.434   7.113  2.8272  3.6509 -1.4741
   82SOPE  H18T 7541   5.990   0.458   7.270 -0.8187  0.0286 -0.7105
   82SOPE   C33 7542   4.968   0.349   7.261  0.4091  0.4635  0.2140
   82SOPE   H3X 7543   4.964   0.312   7.366 -1.5887 -0.7233 -0.2365
   82SOPE   H3Y 7544   5.070   0.343   7.216 -0.2243  2.5544 -1.6413
   82SOPE   C34 7545   4.868   0.271   7.174  0.9848 -0.1835 -0.8553
   82SOPE   H4X 7546   4.767   0.305   7.207  0.9936  1.3590 -2.3166
   82SOPE   H4Y 7547   4.874   0.162   7.198 -0.5981  0.0775  1.0334
   82SOPE   C35 7548   4.875   0.302   7.027 -0.1446  0.2578  0.1346
   82SOPE   H5X 7549   4.969   0.252   6.995 -0.8811 -1.1941  0.1236
   82SOPE   H5Y 7550   4.886   0.412   7.015 -2.1698  0.8540  2.7020
   82SOPE   C36 7551   4.754   0.247   6.948 -0.5146 -0.6415 -0.5052
   82SOPE   H6X 7552   4.666   0.309   6.975 -0.4361 -1.5159  2.0565
   82SOPE   H6Y 7553   4.730   0.144   6.981  0.1928 -1.5160 -2.5704
   82SOPE   C37 7554   4.772   0.245   6.795 -0.6295 -0.3375  0.6807
   82SOPE   H7X 7555   4.674   0.221   6.747 -1.2693 -0.3109  1.9265
   82SOPE   H7Y 7556   4.844   0.167   6.762 -1.2220  0.5506 -3.2118
   82SOPE   C38 7557   4.824   0.379   6.740  0.0031 -0.3766 -0.4428
   82SOPE   H8X 7558   4.929   0.402   6.768 -0.3081 -0.3472  0.7687
   82SOPE   H8Y 7559   4.767   0.468   6.773  1.8200  1.2633 -1.5375
   82SOPE   C39 7560   4.803   0.372   6.585 -0.0979 -0.0329  0.1290
   82SOPE   H9X 7561   4.696   0.397   6.570 -0.4330 -1.1556  0.5683
   82SOPE   H9Y 7562   4.833   0.269   6.556 -0.6077 -0.4287  0.9889
   82SOPE  C310 7563   4.900   0.470   6.508 -0.6103 -0.1446 -0.2868
   82SOPE  H10X 7564   5.004   0.445   6.539  0.0284  3.2257  0.7542
   82SOPE  H10Y 7565   4.898   0.576   6.541 -0.0144 -0.5268  1.0666
   82SOPE  C311 7566   4.882   0.475   6.353  0.0503  0.4687  0.3893
   82SOPE  H11X 7567   4.771   0.487   6.344 -0.3555 -1.6510  1.8478
   82SOPE  H11Y 7568   4.910   0.371   6.329  0.4659 -0.4545  4.2173
   82SOPE  C312 7569   4.952   0.587   6.270 -0.0028  0.1196  0.9062
   82SOPE  H12X 7570   5.062   0.579   6.287 -0.1756 -0.5272  1.7487
   82SOPE  H12Y 7571   4.925   0.683   6.318  1.2663  0.8944  0.1578
   82SOPE  C313 7572   4.918   0.583   6.124 -0.3554  0.1039 -0.3923
   82SOPE  H13X 7573   4.940   0.683   6.080  1.3786  0.1338  0.4421
   82SOPE  H13Y 7574   4.807   0.576   6.120 -0.3064 -0.3613 -1.2407
   82SOPE  C314 7575   4.999   0.483   6.040  0.3013  0.2930 -0.5730
   82SOPE  H14X 7576   4.975   0.385   6.087  0.9643  0.1968 -0.4319
   82SOPE  H14Y 7577   5.109   0.487   6.054  0.4909 -0.2821 -1.7194
   82SOPE  C315 7578   4.959   0.487   5.892 -1.1070  0.3251 -0.0519
   82SOPE  H15X 7579   4.848   0.492   5.890 -1.3945 -3.0202  0.9938
   82SOPE  H15Y 7580   4.997   0.393   5.845 -0.3068  0.6491 -0.0692
   82SOPE  C316 7581   5.011   0.615   5.810 -0.2478 -0.2065 -0.1502
   82SOPE  H16X 7582   5.119   0.605   5.786 -0.1245  0.2693  0.1856
   82SOPE  H16Y 7583   5.012   0.701   5.880  1.2079 -1.0412  0.9139
   82SOPE  C317 7584   4.946   0.633   5.670  0.2948  0.2512 -0.2873
   82SOPE  H17X 7585   4.840   0.601   5.683  0.2480  0.5360  0.0700
   82SOPE  H17Y 7586   5.005   0.572   5.598 -0.6669  0.1445 -1.0003
   82SOPE  C318 7587   4.954   0.782   5.634 -0.0408  0.0897  0.8278
   82SOPE  H18X 7588   4.925   0.804   5.528  0.5385  0.1893  0.6858
   82SOPE  H18Y 7589   5.059   0.817   5.648  0.0267  0.9275 -1.3609
   82SOPE  H18Z 7590   4.897   0.858   5.691  1.5695  1.0233  1.2559
   83SOPE     N 7591   4.047   2.467   3.172 -0.3777 -0.7182 -0.4004
   83SOPE   HN1 7592   4.028   2.555   3.120  1.1231  0.6004  1.1526
   83SOPE   HN2 7593   4.122   2.419   3.118 -0.5719 -0.7587 -0.6346
   83SOPE   HN3 7594   3.955   2.422   3.160 -0.1593 -1.1201 -0.5870
   83SOPE   C12 7595   4.099   2.490   3.309  0.2991  0.0815 -0.6053
   83SOPE  H12A 7596   4.022   2.547   3.365  0.4748  1.1590 -1.4205
   83SOPE  H12B 7597   4.190   2.554   3.308  1.6612 -1.7540 -1.8595
   83SOPE   C11 7598   4.128   2.356   3.381 -0.2430  0.6173  0.1331
   83SOPE  H11A 7599   4.038   2.290   3.378  0.5121 -0.4059 -0.9066
   83SOPE  H11B 7600   4.154   2.376   3.487 -0.8159 -2.6200  0.9852
   83SOPE     P 7601   4.396   2.321   3.341 -0.5186  0.1340  0.2974
   83SOPE   O13 7602   4.430   2.448   3.277 -0.4751  0.1750 -0.0517
   83SOPE   O14 7603   4.464   2.201   3.287 -0.1795 -0.0511 -0.6993
   83SOPE   O12 7604   4.241   2.291   3.319 -0.4727 -0.3835  0.0263
   83SOPE   O11 7605   4.416   2.341   3.493 -0.2184  0.1768  0.3471
   83SOPE    C1 7606   4.394   2.239   3.589  0.3919  0.4964  0.4064
   83SOPE    HA 7607   4.365   2.144   3.540 -0.6194  0.7807  0.4235
   83SOPE    HB 7608   4.310   2.266   3.656  0.5646 -2.7720  2.1152
   83SOPE    C2 7609   4.509   2.198   3.678 -0.3864  0.9189  0.3614
   83SOPE    HS 7610   4.487   2.102   3.728 -2.6668  1.4423  0.4924
   83SOPE   O21 7611   4.526   2.303   3.774  0.0696 -0.0146 -0.4903
   83SOPE   C21 7612   4.577   2.257   3.890 -0.5996 -0.1624 -0.4016
   83SOPE   O22 7613   4.596   2.140   3.917 -0.2921 -0.2545 -0.3429
   83SOPE   C22 7614   4.589   2.374   3.988  0.3164 -0.4409 -0.1107
   83SOPE   H2R 7615   4.490   2.425   3.987  0.1379 -0.7706  0.2675
   83SOPE   H2S 7616   4.652   2.451   3.939 -0.1292 -0.5811 -0.9120
   83SOPE    C3 7617   4.634   2.188   3.584 -0.0007 -0.0403 -0.3191
   83SOPE    HX 7618   4.668   2.292   3.566 -0.9626 -0.0833 -2.7161
   83SOPE    HY 7619   4.594   2.154   3.486 -1.1883 -0.6887  0.3752
   83SOPE   O31 7620   4.738   2.108   3.636  0.1050  0.1920 -0.0420
   83SOPE   C31 7621   4.713   1.980   3.630  0.7810 -0.2202  0.3069
   83SOPE   O32 7622   4.615   1.926   3.583 -0.1086 -0.7581 -0.0036
   83SOPE   C32 7623   4.827   1.903   3.700 -0.1214 -0.2218 -0.0896
   83SOPE   H2X 7624   4.924   1.949   3.673 -0.0883 -0.2824 -0.0745
   83SOPE   H2Y 7625   4.827   1.795   3.673 -0.1438 -0.3447  0.3959
   83SOPE   C23 7626   4.633   2.335   4.132 -0.4529  0.3964 -0.0529
   83SOPE   H3R 7627   4.735   2.292   4.129 -0.0696  1.3128 -1.2828
   83SOPE   H3S 7628   4.558   2.262   4.168 -0.5963  0.0308 -1.0507
   83SOPE   C24 7629   4.632   2.460   4.217 -0.6118  0.0811 -0.6314
   83SOPE   H4R 7630   4.685   2.545   4.168 -2.3130  1.6023  0.0205
   83SOPE   H4S 7631   4.527   2.491   4.238 -0.7679 -1.3215  0.8229
   83SOPE   C25 7632   4.698   2.444   4.360  0.0737 -0.1784 -0.4260
   83SOPE   H5R 7633   4.630   2.375   4.412 -2.9918  2.0782 -1.1640
   83SOPE   H5S 7634   4.797   2.392   4.355  0.6392  0.3792  2.9196
   83SOPE   C26 7635   4.724   2.574   4.437 -0.9238  0.4293  0.2605
   83SOPE   H6R 7636   4.776   2.549   4.532  1.8118  1.8225 -0.7862
   83SOPE   H6S 7637   4.780   2.643   4.372 -0.2457 -0.4250 -0.0807
   83SOPE   C27 7638   4.593   2.644   4.470  1.0154 -1.3010 -0.5684
   83SOPE   H7R 7639   4.609   2.742   4.520  0.5580 -3.0266  3.3539
   83SOPE   H7S 7640   4.535   2.658   4.377  0.7786  1.4579 -0.0689
   83SOPE   C28 7641   4.497   2.572   4.567 -0.0857 -0.6936 -0.2835
   83SOPE   H8R 7642   4.403   2.631   4.560 -0.2313 -0.9413 -0.4735
   83SOPE   H8S 7643   4.473   2.472   4.523 -3.1536 -0.4852  0.6558
   83SOPE   C29 7644   4.548   2.564   4.706  0.2582 -0.3299 -0.6547
   83SOPE   H91 7645   4.656   2.582   4.715  0.3426 -0.1200 -1.8628
   83SOPE  C210 7646   4.475   2.534   4.815 -0.0422 -0.3485 -0.4549
   83SOPE  H101 7647   4.534   2.522   4.907  1.9349  2.2758 -1.2484
   83SOPE  C211 7648   4.328   2.501   4.820 -0.0603 -0.2968 -0.0688
   83SOPE  H11R 7649   4.272   2.536   4.731 -2.1470  2.2524  2.0942
   83SOPE  H11S 7650   4.277   2.552   4.905 -1.3871  0.6595 -1.3932
   83SOPE  C212 7651   4.318   2.350   4.849  0.1561  0.6237  0.6856
   83SOPE  H12R 7652   4.368   2.287   4.773 -2.6384  1.6216 -2.1917
   83SOPE  H12S 7653   4.209   2.329   4.846  0.1906  0.6185 -1.2730
   83SOPE  C213 7654   4.373   2.313   4.990  0.1095  0.4174 -0.5412
   83SOPE  H13R 7655   4.484   2.325   4.996 -0.1081  2.2418  1.0083
   83SOPE  H13S 7656   4.344   2.209   5.017  0.2388  0.9420  1.9050
   83SOPE  C214 7657   4.305   2.395   5.105  0.0223  0.1141 -0.2100
   83SOPE  H14R 7658   4.200   2.419   5.079 -0.2018 -1.0847 -0.4657
   83SOPE  H14S 7659   4.367   2.487   5.102  0.6513 -0.3192 -2.1304
   83SOPE  C215 7660   4.305   2.327   5.231  0.3427 -0.6208 -0.3427
   83SOPE  H15R 7661   4.410   2.296   5.250  0.3317 -0.4308  0.0268
   83SOPE  H15S 7662   4.235   2.240   5.230 -2.4990  1.5399  0.2334
   83SOPE  C216 7663   4.260   2.425   5.339 -0.1219  0.5734 -0.0892
   83SOPE  H16R 7664   4.158   2.465   5.320 -0.7371 -0.0787  1.6262
   83SOPE  H16S 7665   4.318   2.519   5.353 -1.0417  1.4138 -1.6389
   83SOPE  C217 7666   4.250   2.341   5.465 -0.1246  0.0332 -0.0369
   83SOPE  H17R 7667   4.352   2.304   5.490 -0.5458  0.7288  3.1137
   83SOPE  H17S 7668   4.178   2.259   5.443 -1.3765  1.2163 -0.4809
   83SOPE  C218 7669   4.195   2.418   5.591 -0.3312  0.2150  0.5351
   83SOPE  H18R 7670   4.196   2.351   5.680 -0.9762 -1.1760 -0.4589
   83SOPE  H18S 7671   4.090   2.450   5.579 -1.0880 -1.6082  1.7981
   83SOPE  H18T 7672   4.256   2.508   5.614 -1.5078  0.9750  0.7488
   83SOPE   C33 7673   4.819   1.906   3.848  0.5803  0.3549 -0.0739
   83SOPE   H3X 7674   4.714   1.879   3.874  0.0978 -0.4328 -2.6124
   83SOPE   H3Y 7675   4.853   2.000   3.896 -0.1445  0.5585  0.0597
   83SOPE   C34 7676   4.910   1.796   3.912 -0.1915  0.0210  0.5269
   83SOPE   H4X 7677   5.013   1.818   3.876 -0.1463 -1.9899 -0.7535
   83SOPE   H4Y 7678   4.886   1.692   3.880  1.5376 -0.0605 -0.6403
   83SOPE   C35 7679   4.903   1.793   4.059  0.2484  0.3893  0.2142
   83SOPE   H5X 7680   4.970   1.712   4.095  0.6888  1.0363  0.8647
   83SOPE   H5Y 7681   4.804   1.750   4.086  1.4769 -1.2442  2.4907
   83SOPE   C36 7682   4.904   1.926   4.136  0.7758 -0.4251  0.4882
   83SOPE   H6X 7683   4.810   1.985   4.133  1.3692  0.6826  2.1207
   83SOPE   H6Y 7684   4.991   1.992   4.114 -0.8269  1.2244 -1.2873
   83SOPE   C37 7685   4.921   1.899   4.286 -0.7565  0.2586 -0.4837
   83SOPE   H7X 7686   5.022   1.870   4.323 -0.1350  3.1497  0.4024
   83SOPE   H7Y 7687   4.854   1.816   4.317  2.4992 -2.6566 -0.6527
   83SOPE   C38 7688   4.879   2.028   4.366 -0.8904 -0.1817  0.3959
   83SOPE   H8X 7689   4.774   2.058   4.344 -0.9772 -1.1450 -0.5634
   83SOPE   H8Y 7690   4.930   2.112   4.315 -0.7452 -1.3786 -1.5311
   83SOPE   C39 7691   4.906   2.013   4.512 -0.1084  0.5629  0.3469
   83SOPE   H9X 7692   5.013   2.017   4.541 -0.4493  1.3142  1.5861
   83SOPE   H9Y 7693   4.855   1.921   4.548 -0.6673  0.7629  0.0724
   83SOPE  C310 7694   4.843   2.127   4.593 -0.0486  0.9341 -0.0882
   83SOPE  H10X 7695   4.735   2.122   4.568  0.0621 -0.5348 -0.3905
   83SOPE  H10Y 7696   4.893   2.220   4.559  0.0408  1.7554  2.1499
   83SOPE  C311 7697   4.879   2.134   4.746  0.2930 -0.8250 -0.6350
   83SOPE  H11X 7698   4.988   2.122   4.762  0.5103 -1.1011 -2.2132
   83SOPE  H11Y 7699   4.827   2.046   4.790  0.3874 -1.5648 -1.9509
   83SOPE  C312 7700   4.823   2.266   4.815 -0.0684  0.1586  0.2793
   83SOPE  H12X 7701   4.712   2.272   4.805  0.0121  1.5092  0.0946
   83SOPE  H12Y 7702   4.862   2.357   4.767 -0.8525  1.6817  2.3637
   83SOPE  C313 7703   4.855   2.269   4.957 -0.2609 -0.1309  0.0257
   83SOPE  H13X 7704   4.958   2.230   4.977  0.2409  0.7936 -0.7201
   83SOPE  H13Y 7705   4.794   2.195   5.014  0.0963 -0.5162 -0.0835
   83SOPE  C314 7706   4.843   2.415   5.025  0.4551 -0.0526 -0.4845
   83SOPE  H14X 7707   4.736   2.445   5.027  1.0239  2.1560  0.5677
   83SOPE  H14Y 7708   4.896   2.492   4.965  2.2817  0.0127  1.0885
   83SOPE  C315 7709   4.914   2.422   5.167 -0.2318 -0.0527 -0.5645
   83SOPE  H15X 7710   4.919   2.531   5.190  2.6365  0.0826 -1.4549
   83SOPE  H15Y 7711   5.021   2.392   5.161 -0.6106 -2.4606  2.2179
   83SOPE  C316 7712   4.854   2.334   5.277 -0.7037  0.6642 -0.8553
   83SOPE  H16X 7713   4.905   2.350   5.374 -1.3131 -1.2165 -0.1938
   83SOPE  H16Y 7714   4.878   2.230   5.246  0.7204  1.2969 -1.9848
   83SOPE  C317 7715   4.710   2.356   5.320 -0.2530  0.1415 -0.0531
   83SOPE  H17X 7716   4.683   2.294   5.408  1.5772 -0.3556  0.2083
   83SOPE  H17Y 7717   4.642   2.323   5.239  2.9699 -0.6512 -2.6373
   83SOPE  C318 7718   4.683   2.494   5.366  0.0391 -0.0426  0.1767
   83SOPE  H18X 7719   4.746   2.516   5.455  1.2438  0.7433 -0.8386
   83SOPE  H18Y 7720   4.579   2.507   5.402  0.4280  0.3675  1.2142
   83SOPE  H18Z 7721   4.706   2.574   5.293 -0.0014 -1.5464 -1.5353
   84SOPE     N 7722   2.991   6.092   3.309 -1.2059  0.4749  0.2880
   84SOPE   HN1 7723   2.908   6.110   3.249 -3.1912 -1.1617  2.3609
   84SOPE   HN2 7724   2.960   6.081   3.408  1.1743 -1.3738  0.9158
   84SOPE   HN3 7725   3.061   6.166   3.292  0.2608 -1.1806 -1.2701
   84SOPE   C12 7726   3.051   5.955   3.274  0.5793  0.2233 -0.1161
   84SOPE  H12A 7727   3.126   5.921   3.349  0.3248 -0.4733 -0.1676
   84SOPE  H12B 7728   3.092   5.964   3.172 -0.1265  1.9426 -0.2906
   84SOPE   C11 7729   2.932   5.854   3.272 -0.7720  0.3382  0.4696
   84SOPE  H11A 7730   2.964   5.751   3.249  2.7012 -0.1201  5.5856
   84SOPE  H11B 7731   2.861   5.883   3.191 -1.1940 -2.0274 -0.0638
   84SOPE     P 7732   2.772   5.721   3.432 -0.5540  0.0492  0.0016
   84SOPE   O13 7733   2.862   5.621   3.485 -0.4827  0.2974 -0.2142
   84SOPE   O14 7734   2.688   5.679   3.316 -0.0497  0.0150 -0.2805
   84SOPE   O12 7735   2.862   5.849   3.393 -0.1820  0.6985 -0.5245
   84SOPE   O11 7736   2.689   5.786   3.552 -0.0569 -0.3295  0.2592
   84SOPE    C1 7737   2.694   5.915   3.601 -0.2470  0.0326 -0.2479
   84SOPE    HA 7738   2.592   5.947   3.633 -1.0602 -3.1505  0.7494
   84SOPE    HB 7739   2.736   5.988   3.528 -2.6034  1.0075 -0.7253
   84SOPE    C2 7740   2.780   5.927   3.735 -0.1500 -0.3411  0.2852
   84SOPE    HS 7741   2.793   6.036   3.751  2.3297 -0.5150 -0.2437
   84SOPE   O21 7742   2.912   5.861   3.728 -0.7716 -0.0583 -0.0175
   84SOPE   C21 7743   2.999   5.918   3.643  0.5874 -0.4839  0.5644
   84SOPE   O22 7744   2.977   6.020   3.576  0.1255 -0.3611 -0.0606
   84SOPE   C22 7745   3.133   5.845   3.647  0.0575  0.7144 -0.5666
   84SOPE   H2R 7746   3.133   5.766   3.569 -0.0106  0.0053  0.1465
   84SOPE   H2S 7747   3.140   5.796   3.747  0.1520  0.4771 -0.6885
   84SOPE    C3 7748   2.708   5.880   3.858  0.3169 -1.1130  0.0060
   84SOPE    HX 7749   2.685   5.776   3.827 -1.7410 -0.1266 -2.0542
   84SOPE    HY 7750   2.616   5.940   3.870  1.6291  1.0056 -0.0355
   84SOPE   O31 7751   2.776   5.892   3.981  0.3699 -0.1322 -0.2434
   84SOPE   C31 7752   2.745   5.801   4.071  0.3685 -0.1256 -0.2773
   84SOPE   O32 7753   2.677   5.703   4.056  0.9628 -0.4612 -0.0278
   84SOPE   C32 7754   2.802   5.849   4.204  0.3523  0.6660 -0.5698
   84SOPE   H2X 7755   2.750   5.944   4.228 -2.7789 -1.5476  2.5404
   84SOPE   H2Y 7756   2.909   5.868   4.182  1.0013  0.0391  1.7212
   84SOPE   C23 7757   3.254   5.942   3.616  0.1017  0.2849  0.0257
   84SOPE   H3R 7758   3.247   5.989   3.515  0.4735  0.0764 -0.0973
   84SOPE   H3S 7759   3.343   5.877   3.608 -2.2889 -3.0833 -1.9561
   84SOPE   C24 7760   3.294   6.047   3.725  0.3219 -0.1396  0.1800
   84SOPE   H4R 7761   3.385   6.108   3.710  0.1033  0.2615  0.4621
   84SOPE   H4S 7762   3.215   6.124   3.713 -0.0795 -0.6499 -0.4573
   84SOPE   C25 7763   3.292   5.997   3.870  0.2303 -0.2460  0.1884
   84SOPE   H5R 7764   3.200   5.939   3.893  2.0897 -2.8637  1.6081
   84SOPE   H5S 7765   3.388   5.942   3.876 -1.2426 -2.9636  0.7116
   84SOPE   C26 7766   3.293   6.111   3.974 -0.4969 -0.1763 -0.0118
   84SOPE   H6R 7767   3.385   6.165   3.941  0.9094 -3.6039 -2.3227
   84SOPE   H6S 7768   3.193   6.158   3.966 -1.3636 -2.1098 -1.4845
   84SOPE   C27 7769   3.308   6.046   4.114  0.0964  0.2238  0.7764
   84SOPE   H7R 7770   3.205   6.009   4.133 -1.2187  3.6687  1.0695
   84SOPE   H7S 7771   3.381   5.962   4.107 -0.1467 -0.0811  1.7454
   84SOPE   C28 7772   3.370   6.128   4.226  0.0339  0.1531  0.4257
   84SOPE   H8R 7773   3.420   6.067   4.304  0.3545 -0.3033 -0.1314
   84SOPE   H8S 7774   3.450   6.193   4.185 -0.0773  0.5454  0.8171
   84SOPE   C29 7775   3.271   6.220   4.292 -0.2441  0.2460  0.1626
   84SOPE   H91 7776   3.258   6.310   4.230  0.6434  0.6073  0.4877
   84SOPE  C210 7777   3.210   6.205   4.412  0.2786 -0.2192  0.9071
   84SOPE  H101 7778   3.137   6.284   4.437 -0.0852  0.6594 -2.3325
   84SOPE  C211 7779   3.208   6.087   4.499  0.0230 -0.2981  0.6148
   84SOPE  H11R 7780   3.286   6.018   4.460  0.1767  1.1326 -1.8077
   84SOPE  H11S 7781   3.108   6.043   4.475 -0.0995  0.4620 -0.3249
   84SOPE  C212 7782   3.220   6.125   4.649 -0.1708 -0.4687 -0.6635
   84SOPE  H12R 7783   3.135   6.192   4.674  0.9602  1.7033 -2.2506
   84SOPE  H12S 7784   3.312   6.187   4.662  0.5278 -1.2111 -1.9313
   84SOPE  C213 7785   3.213   5.998   4.729  0.4513 -0.1543  0.1677
   84SOPE  H13R 7786   3.299   5.928   4.724  0.9127  0.1979  2.2821
   84SOPE  H13S 7787   3.124   5.943   4.692  0.6004 -1.5217  1.7494
   84SOPE  C214 7788   3.171   6.034   4.874  0.2697  0.5509  0.3271
   84SOPE  H14R 7789   3.093   5.957   4.895  0.8926 -0.1073  0.2917
   84SOPE  H14S 7790   3.127   6.136   4.871  0.4416  0.5939 -1.2091
   84SOPE  C215 7791   3.276   6.029   4.979  0.4805 -0.0538 -1.2355
   84SOPE  H15R 7792   3.345   5.947   4.948  1.7264 -0.5006  2.2986
   84SOPE  H15S 7793   3.238   5.989   5.075 -0.5482  2.1266 -0.6840
   84SOPE  C216 7794   3.343   6.159   4.993 -0.1286  0.1896 -0.8326
   84SOPE  H16R 7795   3.284   6.253   4.987 -2.3184 -1.1613 -1.6757
   84SOPE  H16S 7796   3.420   6.165   4.913  0.9672  1.3281  0.2522
   84SOPE  C217 7797   3.408   6.181   5.127 -0.6909  0.9668  0.2468
   84SOPE  H17R 7798   3.502   6.121   5.127 -0.8433  0.7221  0.5533
   84SOPE  H17S 7799   3.350   6.143   5.214  0.2054 -1.9460 -0.3063
   84SOPE  C218 7800   3.446   6.328   5.148  0.4349  0.0819 -0.3895
   84SOPE  H18R 7801   3.353   6.381   5.177  1.5533  0.9360  1.9101
   84SOPE  H18S 7802   3.486   6.361   5.050  1.6345 -0.9307 -0.2734
   84SOPE  H18T 7803   3.521   6.351   5.227  0.1888  3.1796 -0.9494
   84SOPE   C33 7804   2.775   5.765   4.332  0.3765  0.5900 -0.1408
   84SOPE   H3X 7805   2.780   5.658   4.302 -0.1444 -0.0855  2.0106
   84SOPE   H3Y 7806   2.668   5.780   4.358  0.6992  2.6062  0.1604
   84SOPE   C34 7807   2.868   5.786   4.447 -0.1028  0.5079 -0.5769
   84SOPE   H4X 7808   2.866   5.890   4.487 -2.1485  1.2808 -2.4617
   84SOPE   H4Y 7809   2.976   5.763   4.439  1.2651  5.2910  0.6390
   84SOPE   C35 7810   2.811   5.692   4.564  0.1419 -0.3417  0.0396
   84SOPE   H5X 7811   2.856   5.592   4.547 -3.1909 -1.9554 -0.0390
   84SOPE   H5Y 7812   2.702   5.674   4.563  0.3123 -1.7673  2.0024
   84SOPE   C36 7813   2.833   5.731   4.718  0.4520 -0.7451 -0.2368
   84SOPE   H6X 7814   2.768   5.818   4.739  1.8264  0.3723 -0.4172
   84SOPE   H6Y 7815   2.932   5.773   4.745 -0.9771  3.0284 -0.2723
   84SOPE   C37 7816   2.800   5.613   4.811  0.1333 -0.7440 -0.3275
   84SOPE   H7X 7817   2.889   5.547   4.814 -0.0545 -0.9725  0.5730
   84SOPE   H7Y 7818   2.705   5.563   4.786 -1.1558  1.0943  0.6033
   84SOPE   C38 7819   2.771   5.670   4.952  0.0069  0.0990  0.2625
   84SOPE   H8X 7820   2.696   5.752   4.941 -0.9960 -0.7372  0.6833
   84SOPE   H8Y 7821   2.868   5.711   4.987  0.4412  0.3384 -1.1543
   84SOPE   C39 7822   2.734   5.561   5.055 -0.3851 -0.3457  0.4517
   84SOPE   H9X 7823   2.809   5.479   5.057 -1.2124 -1.1104  0.7336
   84SOPE   H9Y 7824   2.648   5.522   4.997  0.5951 -0.6363 -0.8391
   84SOPE  C310 7825   2.696   5.625   5.195  0.3714 -0.0525 -0.2949
   84SOPE  H10X 7826   2.644   5.723   5.185  0.6156  0.1709  0.5155
   84SOPE  H10Y 7827   2.789   5.653   5.249  1.4463 -1.7611 -1.1851
   84SOPE  C311 7828   2.599   5.529   5.268 -0.0648 -0.1095  0.8798
   84SOPE  H11X 7829   2.653   5.435   5.290 -1.0811 -0.6742  0.9794
   84SOPE  H11Y 7830   2.518   5.510   5.194  2.3475  0.0833 -2.0098
   84SOPE  C312 7831   2.534   5.591   5.393 -0.3628 -0.7426  0.6985
   84SOPE  H12X 7832   2.618   5.637   5.450  0.0538 -0.8743  0.1956
   84SOPE  H12Y 7833   2.480   5.522   5.461 -0.9724 -0.6969  0.2695
   84SOPE  C313 7834   2.449   5.716   5.375  0.6311  0.3706  0.1288
   84SOPE  H13X 7835   2.466   5.743   5.269  4.2751 -0.0441  0.4885
   84SOPE  H13Y 7836   2.469   5.805   5.437 -0.5748 -0.5025  1.8636
   84SOPE  C314 7837   2.297   5.671   5.396  0.0160 -0.1573  0.1800
   84SOPE  H14X 7838   2.290   5.613   5.491  0.9523 -0.4261  0.0967
   84SOPE  H14Y 7839   2.259   5.603   5.317 -0.7072  1.2887 -0.7544
   84SOPE  C315 7840   2.213   5.796   5.419  0.3358  0.3186 -0.4349
   84SOPE  H15X 7841   2.229   5.859   5.328 -1.2797  0.2684 -0.7796
   84SOPE  H15Y 7842   2.229   5.865   5.505 -2.0989  2.8941 -1.8677
   84SOPE  C316 7843   2.066   5.757   5.429 -0.3085  0.7755 -0.3753
   84SOPE  H16X 7844   2.056   5.693   5.520  1.6576  0.6363 -0.2208
   84SOPE  H16Y 7845   2.029   5.693   5.347  0.1214 -0.8398  0.6454
   84SOPE  C317 7846   1.965   5.868   5.436  0.3997 -0.7610  0.4880
   84SOPE  H17X 7847   1.969   5.935   5.524 -2.4089  0.3156 -0.0790
   84SOPE  H17Y 7848   1.866   5.819   5.438 -0.3623  0.7358  1.9822
   84SOPE  C318 7849   1.965   5.953   5.307  0.4099  0.0288  0.1146
   84SOPE  H18X 7850   1.956   5.890   5.216  0.8957 -0.7854  0.6216
   84SOPE  H18Y 7851   2.061   6.009   5.312 -0.6647  1.9983 -0.3170
   84SOPE  H18Z 7852   1.885   6.029   5.307 -0.5283 -0.9312 -0.5828
   85SOPE     N 7853   0.542   1.651   3.323  0.1827  0.5718  0.3276
   85SOPE   HN1 7854   0.531   1.548   3.333  2.1818 -0.0073 -2.3015
   85SOPE   HN2 7855   0.468   1.684   3.258  0.1437  0.8950  0.5341
   85SOPE   HN3 7856   0.632   1.669   3.275  0.6563  1.0565  1.3652
   85SOPE   C12 7857   0.557   1.728   3.447 -0.2147  0.5831 -0.0432
   85SOPE  H12A 7858   0.636   1.682   3.511 -1.0929  1.3012  1.6250
   85SOPE  H12B 7859   0.463   1.719   3.505  0.7606 -1.4656  1.3313
   85SOPE   C11 7860   0.604   1.872   3.427  1.2078 -0.1923  0.0642
   85SOPE  H11A 7861   0.708   1.858   3.391  1.1523  0.5998 -0.4234
   85SOPE  H11B 7862   0.597   1.934   3.518 -1.2058  1.3097 -1.0413
   85SOPE     P 7863   0.590   2.043   3.234  0.0123  0.5840  0.3645
   85SOPE   O13 7864   0.488   2.127   3.170 -0.5551  0.4451  0.0914
   85SOPE   O14 7865   0.684   1.969   3.140  0.3417 -0.2928 -0.0076
   85SOPE   O12 7866   0.517   1.938   3.334  0.2447  0.0347 -0.0233
   85SOPE   O11 7867   0.683   2.119   3.341  0.5460  0.0002 -0.0339
   85SOPE    C1 7868   0.620   2.216   3.424  0.2485 -0.7587  0.4789
   85SOPE    HA 7869   0.528   2.175   3.470 -0.5916  1.3272  0.7565
   85SOPE    HB 7870   0.590   2.314   3.381 -2.9500 -0.2055  3.5004
   85SOPE    C2 7871   0.713   2.244   3.542 -1.1995  0.1540  0.7806
   85SOPE    HS 7872   0.801   2.287   3.489 -2.8046  0.0363 -2.2068
   85SOPE   O21 7873   0.734   2.118   3.609  0.2683  0.5545 -0.6149
   85SOPE   C21 7874   0.848   2.105   3.671 -0.4121 -0.1617 -0.2405
   85SOPE   O22 7875   0.938   2.187   3.676  0.2685  0.0031 -0.0793
   85SOPE   C22 7876   0.865   1.965   3.726  0.1003 -0.5616  0.4329
   85SOPE   H2R 7877   0.879   1.900   3.637 -1.9445 -1.7056  0.8968
   85SOPE   H2S 7878   0.766   1.939   3.768 -0.1927  1.9345  1.4611
   85SOPE    C3 7879   0.669   2.355   3.642  0.3806  0.3468  0.0469
   85SOPE    HX 7880   0.600   2.299   3.709  0.0709  0.7128  0.0370
   85SOPE    HY 7881   0.601   2.423   3.587  0.5235 -0.1343 -0.7349
   85SOPE   O31 7882   0.773   2.413   3.718  0.2505 -0.1464 -0.8055
   85SOPE   C31 7883   0.777   2.546   3.717  0.4148  0.4215  0.1760
   85SOPE   O32 7884   0.703   2.616   3.651  0.2532  0.2006 -0.8165
   85SOPE   C32 7885   0.883   2.604   3.804  0.4563  0.1741  0.1103
   85SOPE   H2X 7886   0.861   2.712   3.812 -1.7321 -0.2087 -0.1325
   85SOPE   H2Y 7887   0.976   2.595   3.743 -0.1216 -1.7866 -0.5654
   85SOPE   C23 7888   0.971   1.958   3.845 -0.4735  0.6005 -0.1908
   85SOPE   H3R 7889   1.067   2.012   3.827 -0.0693 -0.5390 -1.5900
   85SOPE   H3S 7890   1.008   1.854   3.856  1.3698  1.1651 -0.6478
   85SOPE   C24 7891   0.908   2.012   3.978 -0.0056 -0.2135 -0.0823
   85SOPE   H4R 7892   0.863   2.113   3.968  0.2814  0.2237  2.3843
   85SOPE   H4S 7893   0.821   1.947   4.001 -0.4708  0.3876 -0.1260
   85SOPE   C25 7894   1.010   2.007   4.097  0.1717 -0.1924 -0.2963
   85SOPE   H5R 7895   1.067   1.912   4.085  3.3813  1.7982 -2.5103
   85SOPE   H5S 7896   1.079   2.093   4.082  1.2388 -1.0703 -0.5557
   85SOPE   C26 7897   0.948   2.002   4.240  0.1910 -0.2665 -0.4706
   85SOPE   H6R 7898   0.897   2.097   4.265  0.3078 -0.6306  1.2892
   85SOPE   H6S 7899   0.872   1.921   4.245 -0.8373  0.7423  2.3359
   85SOPE   C27 7900   1.058   1.971   4.344  0.4367  0.0371  0.5670
   85SOPE   H7R 7901   1.096   1.870   4.321  0.0394 -0.3581  1.6195
   85SOPE   H7S 7902   1.146   2.039   4.334  2.0992 -2.2377 -1.1721
   85SOPE   C28 7903   1.004   1.941   4.486  0.2264  0.1128 -0.4042
   85SOPE   H8R 7904   1.071   1.876   4.547 -0.0779  0.0445 -0.1433
   85SOPE   H8S 7905   0.985   2.032   4.546 -2.0707 -0.8324  0.4412
   85SOPE   C29 7906   0.872   1.865   4.490  0.1284 -0.0282  0.0166
   85SOPE   H91 7907   0.783   1.924   4.519 -0.3401 -2.0939  3.4064
   85SOPE  C210 7908   0.849   1.731   4.475  0.5780  0.4854  0.6225
   85SOPE  H101 7909   0.746   1.694   4.479  0.7829 -0.4245 -1.3108
   85SOPE  C211 7910   0.957   1.634   4.439  0.2148 -0.0395 -0.7572
   85SOPE  H11R 7911   1.056   1.681   4.424  0.7096 -0.5700  0.6632
   85SOPE  H11S 7912   0.931   1.590   4.341  1.1803 -3.6962  0.4861
   85SOPE  C212 7913   0.974   1.512   4.532  0.1495  0.0425  0.5209
   85SOPE  H12R 7914   1.051   1.445   4.489  0.5442  1.5414 -1.2670
   85SOPE  H12S 7915   0.883   1.448   4.530  0.4140 -0.3494  1.0404
   85SOPE  C213 7916   1.003   1.558   4.674  0.4766 -0.3550 -0.6810
   85SOPE  H13R 7917   0.915   1.608   4.721 -0.0539 -0.2413 -1.7483
   85SOPE  H13S 7918   1.088   1.624   4.699  0.3794 -0.2061 -0.7415
   85SOPE  C214 7919   1.035   1.422   4.754  0.2423 -0.2787  0.6133
   85SOPE  H14R 7920   1.130   1.381   4.713  1.0597  0.8760  1.2682
   85SOPE  H14S 7921   0.953   1.354   4.724  0.8149  0.0959 -1.9953
   85SOPE  C215 7922   1.044   1.443   4.907  0.3117 -0.3726 -0.5131
   85SOPE  H15R 7923   0.940   1.466   4.941  0.6167 -1.6503  1.4536
   85SOPE  H15S 7924   1.113   1.525   4.936  0.4065  0.7863 -3.6383
   85SOPE  C216 7925   1.091   1.325   4.978  0.4356  0.1102 -0.1226
   85SOPE  H16R 7926   1.195   1.300   4.948  0.7372 -0.7980  1.5466
   85SOPE  H16S 7927   1.023   1.239   4.961  1.2764 -1.2169  2.5890
   85SOPE  C217 7928   1.088   1.351   5.122  0.2299  0.0971  0.3509
   85SOPE  H17R 7929   1.135   1.451   5.134 -1.7084  0.8066  2.9243
   85SOPE  H17S 7930   1.158   1.280   5.171 -0.6196  0.0755  1.5789
   85SOPE  C218 7931   0.951   1.352   5.188 -0.9932 -0.3378 -0.4530
   85SOPE  H18R 7932   0.895   1.257   5.171 -3.5083  0.6806  1.6341
   85SOPE  H18S 7933   0.888   1.434   5.147 -1.4446 -0.1174  0.6442
   85SOPE  H18T 7934   0.964   1.355   5.298 -0.7263 -1.3772 -0.4449
   85SOPE   C33 7935   0.908   2.534   3.943  0.0997 -0.0135  0.3364
   85SOPE   H3X 7936   0.899   2.427   3.916 -1.7504  0.4577 -1.1041
   85SOPE   H3Y 7937   0.820   2.560   4.006  0.4978 -0.3821  1.0580
   85SOPE   C34 7938   1.034   2.583   4.006  0.3263  1.0240  0.7469
   85SOPE   H4X 7939   1.023   2.693   4.019 -0.1322  0.7998  2.5554
   85SOPE   H4Y 7940   1.122   2.554   3.944 -0.4492 -1.5881  0.7657
   85SOPE   C35 7941   1.047   2.537   4.147 -0.3911  0.3937 -0.3071
   85SOPE   H5X 7942   0.954   2.538   4.208 -0.3305 -2.4198 -0.0473
   85SOPE   H5Y 7943   1.128   2.602   4.187 -0.5907  0.5430 -0.1420
   85SOPE   C36 7944   1.092   2.388   4.172  0.0088 -0.6189  0.0500
   85SOPE   H6X 7945   1.150   2.350   4.085 -3.2587  0.5817 -2.8563
   85SOPE   H6Y 7946   1.000   2.326   4.168 -0.4944  0.0693  0.6613
   85SOPE   C37 7947   1.172   2.374   4.305  0.3487  0.8614 -0.0398
   85SOPE   H7X 7948   1.171   2.266   4.331 -0.7062  0.9974  0.5774
   85SOPE   H7Y 7949   1.109   2.417   4.386  1.0048  4.0626 -1.0964
   85SOPE   C38 7950   1.316   2.415   4.301 -0.7715 -0.2539 -0.5618
   85SOPE   H8X 7951   1.316   2.526   4.300 -0.4176 -0.2486 -1.7813
   85SOPE   H8Y 7952   1.350   2.384   4.200  0.1424 -0.8720 -0.0774
   85SOPE   C39 7953   1.410   2.361   4.407 -0.1678  0.4978  0.4548
   85SOPE   H9X 7954   1.503   2.421   4.409 -0.2170  0.7183 -1.6743
   85SOPE   H9Y 7955   1.426   2.255   4.378 -1.3850 -0.1244  1.9044
   85SOPE  C310 7956   1.353   2.353   4.545 -0.1214  0.3098 -0.5916
   85SOPE  H10X 7957   1.262   2.290   4.543 -0.8046  1.2834 -1.4008
   85SOPE  H10Y 7958   1.331   2.459   4.573  0.0191 -0.1579  1.4255
   85SOPE  C311 7959   1.446   2.289   4.662  0.2153 -0.0661  0.5390
   85SOPE  H11X 7960   1.519   2.371   4.677 -1.2696  2.4306 -3.9517
   85SOPE  H11Y 7961   1.500   2.203   4.618  2.3183  2.3813 -2.0700
   85SOPE  C312 7962   1.354   2.270   4.779 -1.0422 -0.2569 -0.3735
   85SOPE  H12X 7963   1.274   2.196   4.757 -0.9951  0.1349 -2.0315
   85SOPE  H12Y 7964   1.310   2.372   4.786 -2.1496 -0.6892 -0.7688
   85SOPE  C313 7965   1.428   2.246   4.913  0.0219  0.6408 -0.1930
   85SOPE  H13X 7966   1.372   2.256   5.008 -1.4719 -0.2943 -0.9325
   85SOPE  H13Y 7967   1.507   2.323   4.923  1.8012 -1.3603  2.3926
   85SOPE  C314 7968   1.498   2.107   4.915  0.2160 -0.5471  0.6509
   85SOPE  H14X 7969   1.525   2.069   4.815 -2.4269 -1.3141  0.1665
   85SOPE  H14Y 7970   1.420   2.032   4.940  0.3519 -0.4296  1.4687
   85SOPE  C315 7971   1.608   2.108   5.018 -0.7925  0.3662 -0.0176
   85SOPE  H15X 7972   1.667   2.200   4.998  0.9891 -0.8218 -0.4222
   85SOPE  H15Y 7973   1.667   2.017   4.994 -0.1683  0.7298  0.1320
   85SOPE  C316 7974   1.568   2.094   5.164 -0.2326  0.7798  0.8752
   85SOPE  H16X 7975   1.522   1.995   5.182 -2.2169  1.2638 -1.0339
   85SOPE  H16Y 7976   1.485   2.164   5.186 -2.1631 -2.0225  3.2608
   85SOPE  C317 7977   1.679   2.127   5.262 -0.0887 -0.0425  0.3273
   85SOPE  H17X 7978   1.746   2.209   5.231  1.4052 -0.6732  1.7440
   85SOPE  H17Y 7979   1.750   2.042   5.268 -0.3360 -0.3737 -1.0294
   85SOPE  C318 7980   1.634   2.155   5.406 -0.2725  0.5872 -0.3689
   85SOPE  H18X 7981   1.555   2.090   5.450 -0.7056  1.3428 -0.0102
   85SOPE  H18Y 7982   1.599   2.259   5.422  1.3775  1.1164  0.0229
   85SOPE  H18Z 7983   1.714   2.152   5.483 -0.1171  1.4253 -0.4934
   86SOPE     N 7984   2.521   5.276   3.225  0.2386  0.7422 -0.3133
   86SOPE   HN1 7985   2.531   5.258   3.327 -0.1475  0.1484 -0.3758
   86SOPE   HN2 7986   2.596   5.211   3.193  0.4723  0.8581 -0.0088
   86SOPE   HN3 7987   2.531   5.378   3.211  0.4435  1.1018  2.0593
   86SOPE   C12 7988   2.394   5.247   3.159 -0.7670  0.1401  0.4949
   86SOPE  H12A 7989   2.419   5.253   3.051 -0.3697  2.8259  0.6487
   86SOPE  H12B 7990   2.316   5.323   3.183 -1.1902 -0.0253 -0.3140
   86SOPE   C11 7991   2.358   5.106   3.189  0.7137 -0.0661  0.4781
   86SOPE  H11A 7992   2.289   5.070   3.110 -0.6413 -0.3163  1.7279
   86SOPE  H11B 7993   2.306   5.114   3.286 -1.5320 -0.3262 -0.6485
   86SOPE     P 7994   2.474   4.871   3.236 -0.1604 -0.1032  0.8685
   86SOPE   O13 7995   2.542   4.792   3.126  0.0860 -0.6730  0.2560
   86SOPE   O14 7996   2.333   4.831   3.263 -0.3348 -0.2583  0.3349
   86SOPE   O12 7997   2.474   5.022   3.191 -0.3109 -0.2998 -0.4571
   86SOPE   O11 7998   2.558   4.870   3.364  0.1891  0.5191 -0.5899
   86SOPE    C1 7999   2.563   4.970   3.464  0.6257  0.7782 -0.2260
   86SOPE    HA 8000   2.498   5.059   3.447 -1.2445 -0.3779  0.5279
   86SOPE    HB 8001   2.669   5.002   3.476  1.5415 -1.9217 -0.4915
   86SOPE    C2 8002   2.531   4.910   3.599  0.4778 -0.1923  0.4894
   86SOPE    HS 8003   2.608   4.830   3.606 -1.8753 -2.5270  1.1290
   86SOPE   O21 8004   2.394   4.857   3.607 -0.1443 -0.0541  0.3533
   86SOPE   C21 8005   2.374   4.750   3.687 -0.2921 -0.4053 -1.1674
   86SOPE   O22 8006   2.465   4.694   3.752 -0.0735  0.2608 -0.3381
   86SOPE   C22 8007   2.234   4.698   3.687 -0.7003  0.0432  0.2021
   86SOPE   H2R 8008   2.240   4.588   3.693  0.0614  0.1365  1.7676
   86SOPE   H2S 8009   2.192   4.725   3.588  0.9661 -2.1836 -1.1779
   86SOPE    C3 8010   2.543   5.023   3.708 -0.1583  0.2255 -0.7448
   86SOPE    HX 8011   2.461   5.092   3.676 -1.3633 -1.5938 -1.7824
   86SOPE    HY 8012   2.636   5.083   3.706 -0.8793  1.4034 -0.2419
   86SOPE   O31 8013   2.494   4.980   3.838  0.1267 -0.3895  0.1134
   86SOPE   C31 8014   2.582   4.922   3.921 -0.5062 -0.7383  0.6676
   86SOPE   O32 8015   2.701   4.909   3.897 -0.0070 -0.4485 -1.1310
   86SOPE   C32 8016   2.502   4.855   4.039 -0.0293 -0.1124  0.0214
   86SOPE   H2X 8017   2.446   4.774   3.987 -0.1040  1.0161 -1.7466
   86SOPE   H2Y 8018   2.421   4.925   4.072  0.2408  0.5208 -0.6346
   86SOPE   C23 8019   2.157   4.730   3.815 -0.0551 -0.4488 -0.4099
   86SOPE   H3R 8020   2.052   4.694   3.806  0.0760 -0.8134 -0.4715
   86SOPE   H3S 8021   2.165   4.838   3.842 -1.7915 -0.5155  0.5570
   86SOPE   C24 8022   2.192   4.645   3.932 -0.3962  0.1392  0.3158
   86SOPE   H4R 8023   2.205   4.545   3.886 -1.5526  0.3250 -0.4523
   86SOPE   H4S 8024   2.289   4.661   3.985 -0.5679  0.1703  0.6261
   86SOPE   C25 8025   2.077   4.649   4.044 -0.1907 -0.1415  0.5826
   86SOPE   H5R 8026   1.984   4.691   3.999  0.8282 -0.2169 -1.7216
   86SOPE   H5S 8027   2.057   4.550   4.089 -0.2571 -0.7465 -0.7486
   86SOPE   C26 8028   2.102   4.748   4.156  0.3342 -0.6095  0.4805
   86SOPE   H6R 8029   2.193   4.710   4.207  0.5359 -0.8750 -0.0706
   86SOPE   H6S 8030   2.097   4.851   4.115 -0.2128 -1.1893 -0.9765
   86SOPE   C27 8031   1.990   4.751   4.260 -0.0916  0.1442 -0.1927
   86SOPE   H7R 8032   1.900   4.808   4.230 -0.3654  0.7640  1.6639
   86SOPE   H7S 8033   1.954   4.646   4.258  1.5636 -0.4528 -1.2679
   86SOPE   C28 8034   2.036   4.807   4.395  0.7047 -0.3826 -0.1981
   86SOPE   H8R 8035   2.080   4.909   4.398  2.9369 -1.2916  2.5972
   86SOPE   H8S 8036   1.941   4.827   4.451 -0.1597 -1.2788 -1.2983
   86SOPE   C29 8037   2.124   4.718   4.477 -0.6752 -0.5019  0.2721
   86SOPE   H91 8038   2.187   4.649   4.421  0.1617  0.2503  0.2518
   86SOPE  C210 8039   2.126   4.706   4.610  0.3116  0.0064  0.4270
   86SOPE  H101 8040   2.192   4.630   4.655 -0.1080 -1.0658 -0.6989
   86SOPE  C211 8041   2.053   4.782   4.717 -0.0114 -0.0620 -0.0672
   86SOPE  H11R 8042   2.025   4.886   4.689  2.0522  1.8963  4.1395
   86SOPE  H11S 8043   2.110   4.790   4.812  0.1056  1.6425 -0.2444
   86SOPE  C212 8044   1.921   4.724   4.768 -0.8341  0.3857  0.3970
   86SOPE  H12R 8045   1.935   4.617   4.795  1.0537  0.3548 -0.5546
   86SOPE  H12S 8046   1.846   4.717   4.686 -1.6140  0.7599  1.0585
   86SOPE  C213 8047   1.857   4.812   4.878  0.0505  0.0022 -0.0434
   86SOPE  H13R 8048   1.808   4.897   4.826  0.1190  0.3805  0.4984
   86SOPE  H13S 8049   1.935   4.861   4.941 -0.1266 -0.2961  0.4159
   86SOPE  C214 8050   1.768   4.732   4.976 -0.4935  1.1446 -0.0085
   86SOPE  H14R 8051   1.679   4.694   4.922  0.2080  0.8472 -0.9969
   86SOPE  H14S 8052   1.723   4.810   5.042 -4.2321  0.3586 -1.3835
   86SOPE  C215 8053   1.842   4.633   5.067 -0.7359 -0.2888 -0.6756
   86SOPE  H15R 8054   1.942   4.670   5.099 -0.9740  0.4841 -0.8022
   86SOPE  H15S 8055   1.856   4.541   5.007  2.1702  0.2886 -1.0205
   86SOPE  C216 8056   1.746   4.606   5.192  0.1351 -0.4188 -0.0086
   86SOPE  H16R 8057   1.777   4.507   5.230 -0.6842 -0.1113  1.5683
   86SOPE  H16S 8058   1.638   4.603   5.163  0.9404  0.0945 -3.5678
   86SOPE  C217 8059   1.774   4.710   5.303 -0.3841  0.0119 -0.2582
   86SOPE  H17R 8060   1.686   4.725   5.370  0.9988  1.1878  1.3686
   86SOPE  H17S 8061   1.807   4.811   5.274 -1.9984  0.2240 -1.4741
   86SOPE  C218 8062   1.878   4.670   5.413  0.6373 -0.4553  0.0604
   86SOPE  H18R 8063   1.972   4.646   5.359  0.9603 -0.3126  0.5528
   86SOPE  H18S 8064   1.850   4.579   5.470  0.3150 -0.3818  0.0228
   86SOPE  H18T 8065   1.915   4.754   5.477 -0.6028  2.1685 -2.4244
   86SOPE   C33 8066   2.587   4.808   4.153 -0.1517 -0.2094 -0.2269
   86SOPE   H3X 8067   2.652   4.892   4.185 -1.8475 -0.3023  3.9748
   86SOPE   H3Y 8068   2.653   4.719   4.142 -0.1888 -0.1176 -1.3073
   86SOPE   C34 8069   2.497   4.774   4.270 -0.5870  0.2065 -0.5786
   86SOPE   H4X 8070   2.421   4.701   4.235 -0.7767 -0.0107  0.2549
   86SOPE   H4Y 8071   2.444   4.861   4.316  0.9792 -0.2984  2.4196
   86SOPE   C35 8072   2.581   4.714   4.394  0.6991 -0.5145  0.5211
   86SOPE   H5X 8073   2.672   4.777   4.395 -1.7193  3.3715 -0.6442
   86SOPE   H5Y 8074   2.606   4.607   4.381 -2.7424 -1.4554  0.5736
   86SOPE   C36 8075   2.502   4.731   4.523 -0.0156  0.8267  0.1480
   86SOPE   H6X 8076   2.416   4.660   4.520 -0.5852  1.5101 -0.2497
   86SOPE   H6Y 8077   2.462   4.835   4.530  1.1138  1.2857 -0.0111
   86SOPE   C37 8078   2.582   4.693   4.655 -0.5382 -0.0510 -0.1804
   86SOPE   H7X 8079   2.662   4.769   4.664 -1.3725  1.2129 -2.6315
   86SOPE   H7Y 8080   2.634   4.595   4.653  2.4984  1.3623  1.9225
   86SOPE   C38 8081   2.480   4.680   4.769  0.5253  0.0815  0.3184
   86SOPE   H8X 8082   2.407   4.601   4.742 -0.5514  0.0941  2.8614
   86SOPE   H8Y 8083   2.417   4.771   4.775  0.3801 -0.1050  2.3497
   86SOPE   C39 8084   2.545   4.657   4.907 -0.5576  1.1439 -0.8554
   86SOPE   H9X 8085   2.622   4.734   4.928  0.5857  0.4013 -2.1956
   86SOPE   H9Y 8086   2.598   4.559   4.908 -1.3228  0.6835 -2.2433
   86SOPE  C310 8087   2.442   4.667   5.017  0.0408  0.4314 -0.3850
   86SOPE  H10X 8088   2.363   4.588   5.013  0.5743 -0.1954  0.9057
   86SOPE  H10Y 8089   2.388   4.757   4.980 -0.7828  0.2362  0.3069
   86SOPE  C311 8090   2.504   4.682   5.153 -0.2710 -0.5380 -0.2923
   86SOPE  H11X 8091   2.564   4.774   5.167 -1.1090 -0.1973  1.3271
   86SOPE  H11Y 8092   2.565   4.593   5.181  2.0161  0.7539 -0.8252
   86SOPE  C312 8093   2.391   4.689   5.264  0.3953 -0.7937  0.2956
   86SOPE  H12X 8094   2.341   4.595   5.232 -0.0423  0.1581 -2.0301
   86SOPE  H12Y 8095   2.325   4.776   5.245  0.4030 -1.2645 -2.2962
   86SOPE  C313 8096   2.450   4.673   5.409 -0.3222  0.1164  0.4551
   86SOPE  H13X 8097   2.519   4.757   5.431  0.9980 -0.4356 -1.3424
   86SOPE  H13Y 8098   2.508   4.578   5.405  0.3715  0.5727 -2.2078
   86SOPE  C314 8099   2.337   4.671   5.517 -0.1034  0.1382  0.4796
   86SOPE  H14X 8100   2.388   4.650   5.614  0.4032  1.2106  0.4659
   86SOPE  H14Y 8101   2.264   4.594   5.486  2.9538 -2.3825 -0.9222
   86SOPE  C315 8102   2.273   4.810   5.533  0.4166 -0.3696 -0.1944
   86SOPE  H15X 8103   2.218   4.839   5.441 -1.7954 -0.5333  0.9903
   86SOPE  H15Y 8104   2.354   4.886   5.538 -0.0036  0.1370 -0.9010
   86SOPE  C316 8105   2.196   4.811   5.666  0.6182 -0.0889 -0.4749
   86SOPE  H16X 8106   2.269   4.789   5.747  2.0185 -3.2174 -2.4212
   86SOPE  H16Y 8107   2.122   4.729   5.659 -0.5009  1.0035 -2.6254
   86SOPE  C317 8108   2.117   4.938   5.700  0.0598 -0.9738 -0.6738
   86SOPE  H17X 8109   2.049   4.950   5.613  1.8929  0.9573 -1.9396
   86SOPE  H17Y 8110   2.177   5.031   5.694 -0.2354 -0.6991  0.3841
   86SOPE  C318 8111   2.036   4.937   5.826  0.1686 -0.2294 -0.5596
   86SOPE  H18X 8112   1.984   5.034   5.841 -1.5412 -1.3649  1.5181
   86SOPE  H18Y 8113   2.098   4.923   5.917  1.8748  2.9960 -1.1030
   86SOPE  H18Z 8114   1.953   4.863   5.825 -1.1923  1.1797  1.0953
   87SOPE     N 8115   2.933   3.874   2.954  0.0081  0.0773  0.0529
   87SOPE   HN1 8116   2.833   3.853   2.936 -0.0068  1.4679 -1.7693
   87SOPE   HN2 8117   2.938   3.955   3.019  1.6993  0.6921 -0.7858
   87SOPE   HN3 8118   2.974   3.899   2.862 -1.3631  2.3282 -0.0244
   87SOPE   C12 8119   3.004   3.759   3.018 -0.7927 -0.0612 -0.2411
   87SOPE  H12A 8120   3.098   3.794   3.065 -0.3373  0.0432 -1.2240
   87SOPE  H12B 8121   3.021   3.678   2.944 -0.6619  1.0041 -1.4018
   87SOPE   C11 8122   2.916   3.702   3.134  0.0610  0.2433  0.2095
   87SOPE  H11A 8123   2.900   3.766   3.223  1.5364  0.5879  0.2462
   87SOPE  H11B 8124   2.968   3.612   3.173 -0.3058  0.0962  0.3637
   87SOPE     P 8125   2.657   3.725   3.074 -0.0171 -0.3827 -0.7588
   87SOPE   O13 8126   2.545   3.624   3.055 -0.3121 -0.3273 -0.4402
   87SOPE   O14 8127   2.674   3.840   2.983 -0.1497  0.3379  0.3274
   87SOPE   O12 8128   2.795   3.644   3.072  0.0988  0.2148 -0.1977
   87SOPE   O11 8129   2.650   3.775   3.223  0.5242 -0.1737 -0.4003
   87SOPE    C1 8130   2.561   3.702   3.304  0.1228  0.5301  0.6188
   87SOPE    HA 8131   2.553   3.594   3.279  3.5507  0.0041  1.2597
   87SOPE    HB 8132   2.457   3.742   3.307 -1.4881 -3.1979 -0.1247
   87SOPE    C2 8133   2.623   3.690   3.446 -0.0302  0.5081  0.3454
   87SOPE    HS 8134   2.622   3.797   3.477 -0.6588  1.0300 -1.3581
   87SOPE   O21 8135   2.749   3.616   3.433 -0.2883 -0.1137  0.3806
   87SOPE   C21 8136   2.840   3.651   3.524  0.5746  0.1318 -0.3667
   87SOPE   O22 8137   2.829   3.740   3.605 -0.3167  0.0916  0.4547
   87SOPE   C22 8138   2.949   3.538   3.535 -0.1111  0.0401  0.0146
   87SOPE   H2R 8139   2.993   3.533   3.433 -0.6167 -0.7034 -0.1831
   87SOPE   H2S 8140   2.901   3.439   3.551  1.3438 -0.2542  3.6170
   87SOPE    C3 8141   2.525   3.615   3.537  0.4472 -0.2890 -0.0453
   87SOPE    HX 8142   2.520   3.508   3.509  2.6694 -0.6259  0.6546
   87SOPE    HY 8143   2.423   3.659   3.527 -0.5005 -2.2551  0.4733
   87SOPE   O31 8144   2.577   3.618   3.673 -0.1285 -0.3973  0.5052
   87SOPE   C31 8145   2.535   3.718   3.753 -0.3825 -0.0260  0.6432
   87SOPE   O32 8146   2.445   3.793   3.726  0.0626  0.7787  0.0381
   87SOPE   C32 8147   2.602   3.717   3.890 -0.0285 -0.0576  0.2413
   87SOPE   H2X 8148   2.681   3.639   3.882  0.5594  0.5561 -0.0579
   87SOPE   H2Y 8149   2.537   3.667   3.965  0.2242 -0.9942 -0.1488
   87SOPE   C23 8150   3.073   3.564   3.623  1.0213  0.2151  0.0802
   87SOPE   H3R 8151   3.116   3.665   3.608  1.7341  0.3032  2.3034
   87SOPE   H3S 8152   3.148   3.484   3.606  0.3887 -0.4116  0.1502
   87SOPE   C24 8153   3.043   3.543   3.768 -0.4318 -0.6050 -0.0060
   87SOPE   H4R 8154   3.134   3.576   3.822 -2.1670  2.9599  1.0808
   87SOPE   H4S 8155   2.959   3.613   3.787 -0.3333 -0.2780 -0.7744
   87SOPE   C25 8156   3.004   3.402   3.813 -0.0387 -0.5836 -0.1365
   87SOPE   H5R 8157   2.913   3.367   3.761  0.1737 -0.4624 -0.5945
   87SOPE   H5S 8158   3.082   3.327   3.787 -0.1377 -1.0025  0.7498
   87SOPE   C26 8159   2.999   3.393   3.971  1.1754  0.1289 -0.7811
   87SOPE   H6R 8160   2.960   3.292   3.997  0.4816  0.8537  1.1251
   87SOPE   H6S 8161   3.103   3.391   4.011  0.7510 -1.7630  0.3630
   87SOPE   C27 8162   2.912   3.497   4.038  0.0593  0.0730 -0.5018
   87SOPE   H7R 8163   2.935   3.600   4.006 -2.0977  0.2904 -1.5741
   87SOPE   H7S 8164   2.811   3.472   3.999 -0.7883  1.8184  0.4660
   87SOPE   C28 8165   2.927   3.481   4.187  0.0716  0.4055  0.1290
   87SOPE   H8R 8166   2.855   3.542   4.246  0.3541  0.9311 -0.0626
   87SOPE   H8S 8167   2.902   3.374   4.205  2.6912 -0.5056 -1.2291
   87SOPE   C29 8168   3.065   3.524   4.239 -0.5036  0.1625  0.6667
   87SOPE   H91 8169   3.124   3.586   4.169  0.0854  1.3145  2.1262
   87SOPE  C210 8170   3.115   3.491   4.357  0.4952 -0.1272 -0.2361
   87SOPE  H101 8171   3.213   3.530   4.389  0.0975 -0.3705  1.3893
   87SOPE  C211 8172   3.049   3.393   4.452  0.1930  0.4287  0.0756
   87SOPE  H11R 8173   3.117   3.320   4.500  0.7004  0.9721  0.2009
   87SOPE  H11S 8174   2.969   3.335   4.401 -0.6138 -0.4756  2.2768
   87SOPE  C212 8175   2.968   3.464   4.558  0.5357  0.2885 -0.2172
   87SOPE  H12R 8176   2.875   3.409   4.584  0.6455  0.1952 -0.0172
   87SOPE  H12S 8177   2.931   3.560   4.516 -3.1351 -0.2297  1.3750
   87SOPE  C213 8178   3.057   3.497   4.679 -0.5201 -0.1820 -0.0568
   87SOPE  H13R 8179   3.143   3.563   4.653 -0.4299  0.4094  1.6322
   87SOPE  H13S 8180   3.098   3.402   4.721  0.5768 -0.3436 -1.4055
   87SOPE  C214 8181   2.970   3.572   4.774  0.8365 -0.5426 -0.5130
   87SOPE  H14R 8182   2.874   3.517   4.785  0.4787  0.3513  1.1519
   87SOPE  H14S 8183   2.947   3.674   4.735  1.9766 -0.4127 -0.8711
   87SOPE  C215 8184   3.026   3.605   4.917  0.5126 -0.4623  0.3232
   87SOPE  H15R 8185   3.121   3.660   4.900  1.5943 -2.1838  0.5157
   87SOPE  H15S 8186   3.048   3.504   4.960 -0.1992 -2.4891 -3.6230
   87SOPE  C216 8187   2.929   3.682   5.006 -0.1319 -0.5176 -0.1253
   87SOPE  H16R 8188   2.831   3.630   5.011 -1.5412  2.0999  1.2452
   87SOPE  H16S 8189   2.915   3.783   4.962 -1.1469 -0.5144  0.1842
   87SOPE  C217 8190   2.987   3.698   5.144 -0.1076  0.2177  0.0407
   87SOPE  H17R 8191   3.081   3.755   5.133  1.5627 -2.6951 -2.1747
   87SOPE  H17S 8192   3.025   3.603   5.189  0.7015  0.4012 -0.2453
   87SOPE  C218 8193   2.885   3.765   5.231  0.5239  0.8084  0.5064
   87SOPE  H18R 8194   2.876   3.866   5.186  2.1614  0.5611 -0.4778
   87SOPE  H18S 8195   2.915   3.782   5.337  0.3511  0.9197  0.5366
   87SOPE  H18T 8196   2.788   3.712   5.227  0.7888  0.3580 -0.0306
   87SOPE   C33 8197   2.673   3.852   3.930  0.2618 -0.0591 -0.3952
   87SOPE   H3X 8198   2.604   3.939   3.922  0.6683  0.0540 -4.7622
   87SOPE   H3Y 8199   2.756   3.860   3.857 -2.5828 -1.2515 -4.0603
   87SOPE   C34 8200   2.731   3.857   4.082  0.4465  0.1859 -0.4505
   87SOPE   H4X 8201   2.753   3.965   4.099 -3.4544  1.4966 -2.5343
   87SOPE   H4Y 8202   2.826   3.798   4.083  0.3734  0.0292 -1.5373
   87SOPE   C35 8203   2.622   3.811   4.189  0.1517  0.6157 -0.0228
   87SOPE   H5X 8204   2.593   3.704   4.177  4.1500 -0.6550  0.0364
   87SOPE   H5Y 8205   2.541   3.884   4.171  0.3708  0.1922 -3.3537
   87SOPE   C36 8206   2.670   3.810   4.331  0.7252  0.0230  0.3849
   87SOPE   H6X 8207   2.723   3.907   4.343  3.8218 -1.2744 -1.4778
   87SOPE   H6Y 8208   2.736   3.723   4.351 -1.2682 -1.8025 -0.6657
   87SOPE   C37 8209   2.569   3.803   4.445  0.0142  0.1526  0.1134
   87SOPE   H7X 8210   2.498   3.721   4.420 -0.5469 -0.1258  2.4022
   87SOPE   H7Y 8211   2.507   3.894   4.457 -1.0581 -0.4564 -0.6910
   87SOPE   C38 8212   2.634   3.783   4.584 -0.9043  0.1443 -1.1107
   87SOPE   H8X 8213   2.704   3.865   4.609 -0.7764 -0.6737  1.6500
   87SOPE   H8Y 8214   2.686   3.685   4.583  2.1211  1.4315  3.0466
   87SOPE   C39 8215   2.526   3.770   4.701  0.3637  0.2463 -0.2492
   87SOPE   H9X 8216   2.450   3.691   4.682 -0.3641  0.3449  1.9585
   87SOPE   H9Y 8217   2.475   3.868   4.699 -2.7089 -0.9710  4.0121
   87SOPE  C310 8218   2.584   3.757   4.841 -0.1885  0.4421  0.1493
   87SOPE  H10X 8219   2.668   3.828   4.853 -1.0940  1.4433  0.6601
   87SOPE  H10Y 8220   2.633   3.657   4.845 -1.9624 -0.4983 -0.1611
   87SOPE  C311 8221   2.478   3.771   4.951  0.1874 -0.0994  0.8635
   87SOPE  H11X 8222   2.398   3.694   4.950 -0.9273  0.9800  2.0130
   87SOPE  H11Y 8223   2.421   3.866   4.938  2.0441  0.8978 -0.4870
   87SOPE  C312 8224   2.533   3.787   5.091  0.0815  0.4184 -0.4505
   87SOPE  H12X 8225   2.615   3.863   5.087  1.5198 -0.6552  3.8735
   87SOPE  H12Y 8226   2.589   3.700   5.129 -0.0070  0.6233  0.1534
   87SOPE  C313 8227   2.424   3.827   5.191 -0.6077 -0.1975  0.0481
   87SOPE  H13X 8228   2.337   3.758   5.186 -0.4918 -0.3242 -0.2655
   87SOPE  H13Y 8229   2.391   3.931   5.170 -0.4612  0.4720  2.7972
   87SOPE  C314 8230   2.467   3.825   5.337  0.0894  0.0060  0.5212
   87SOPE  H14X 8231   2.539   3.909   5.350  0.1724  0.3613 -1.7912
   87SOPE  H14Y 8232   2.531   3.737   5.357 -0.2939 -0.1034  1.2913
   87SOPE  C315 8233   2.358   3.834   5.444  0.2436  0.9410  0.5816
   87SOPE  H15X 8234   2.278   3.907   5.420 -0.1788  0.8274  1.5777
   87SOPE  H15Y 8235   2.405   3.867   5.539  1.8955  0.1532  0.0808
   87SOPE  C316 8236   2.297   3.700   5.485 -0.1072 -0.1346  0.1611
   87SOPE  H16X 8237   2.387   3.636   5.502  1.2556  2.4841  4.0451
   87SOPE  H16Y 8238   2.249   3.655   5.395  1.6995 -1.4567 -0.2308
   87SOPE  C317 8239   2.202   3.700   5.603 -0.0315  0.4566 -0.2084
   87SOPE  H17X 8240   2.255   3.739   5.692  0.3124  0.7935 -0.5572
   87SOPE  H17Y 8241   2.183   3.592   5.620  0.1002  0.4526 -0.0865
   87SOPE  C318 8242   2.077   3.789   5.575 -0.7725  0.0258  0.0217
   87SOPE  H18X 8243   2.012   3.813   5.663 -1.3063 -0.2041 -0.3044
   87SOPE  H18Y 8244   2.014   3.743   5.496 -0.7633  1.6812 -0.9677
   87SOPE  H18Z 8245   2.119   3.882   5.533  0.5460 -1.4950 -2.2545
   88SOPE     N 8246   4.646   4.673   3.417 -0.7017  0.4541  0.2351
   88SOPE   HN1 8247   4.685   4.605   3.349  0.2872 -0.5860  1.7874
   88SOPE   HN2 8248   4.656   4.625   3.508  2.0748  0.6950  0.1714
   88SOPE   HN3 8249   4.545   4.688   3.397 -1.2124 -2.8077 -0.2018
   88SOPE   C12 8250   4.713   4.805   3.431 -0.3411 -0.3588 -0.4782
   88SOPE  H12A 8251   4.657   4.857   3.512 -1.1317  1.7109 -2.2266
   88SOPE  H12B 8252   4.689   4.864   3.340  0.4658  0.1831 -0.3545
   88SOPE   C11 8253   4.865   4.798   3.459  0.7971 -0.3695 -0.2185
   88SOPE  H11A 8254   4.884   4.732   3.546  0.0486  2.1207  1.9684
   88SOPE  H11B 8255   4.894   4.901   3.489  0.7833  0.7928 -3.6663
   88SOPE     P 8256   4.982   4.830   3.228  0.6243  0.3792 -0.4845
   88SOPE   O13 8257   4.872   4.871   3.133  0.2098 -0.5750 -0.5273
   88SOPE   O14 8258   5.086   4.747   3.165  0.4633 -0.1965  0.3046
   88SOPE   O12 8259   4.925   4.738   3.342 -0.1569  0.1419 -0.0909
   88SOPE   O11 8260   5.045   4.954   3.305  0.1079 -0.0142  0.2061
   88SOPE    C1 8261   5.186   4.968   3.310  0.7965  0.9473  0.2294
   88SOPE    HA 8262   5.219   5.074   3.316  1.8574  0.7282 -1.2456
   88SOPE    HB 8263   5.242   4.927   3.224 -1.0039  1.0785 -1.0539
   88SOPE    C2 8264   5.236   4.891   3.435 -0.0734  0.0920 -0.4071
   88SOPE    HS 8265   5.222   4.786   3.404 -0.9964  0.2824 -0.6661
   88SOPE   O21 8266   5.162   4.933   3.545  0.3031  0.0750 -0.0855
   88SOPE   C21 8267   5.155   4.840   3.633 -0.1233 -0.6250 -0.3937
   88SOPE   O22 8268   5.188   4.725   3.625  0.0248  0.9476 -0.2821
   88SOPE   C22 8269   5.066   4.891   3.752 -0.5985  0.8279 -0.0209
   88SOPE   H2R 8270   5.083   4.827   3.841 -1.3491  1.5097  0.6290
   88SOPE   H2S 8271   4.965   4.906   3.707 -0.1662 -0.8601 -1.6311
   88SOPE    C3 8272   5.393   4.913   3.452  0.6632 -0.3441  0.6579
   88SOPE    HX 8273   5.410   5.023   3.452  1.0900 -0.4105  0.5530
   88SOPE    HY 8274   5.442   4.881   3.357 -2.7193 -2.6396 -0.5022
   88SOPE   O31 8275   5.452   4.846   3.559 -0.2452  0.1990  0.5285
   88SOPE   C31 8276   5.481   4.715   3.561  0.9303  0.1389 -0.0724
   88SOPE   O32 8277   5.455   4.636   3.473 -0.1086 -0.1581  0.3570
   88SOPE   C32 8278   5.539   4.680   3.696  0.2889 -0.3805 -0.2996
   88SOPE   H2X 8279   5.643   4.646   3.680  0.6621  0.7809 -0.4281
   88SOPE   H2Y 8280   5.482   4.598   3.744 -0.5474  0.6018  0.4459
   88SOPE   C23 8281   5.117   5.030   3.799  0.1905 -0.7185 -0.2640
   88SOPE   H3R 8282   5.106   5.119   3.734  0.5074  0.0118  0.6539
   88SOPE   H3S 8283   5.219   5.024   3.842  0.8557  2.1122 -1.2580
   88SOPE   C24 8284   5.025   5.076   3.918 -1.2491 -0.4997 -0.8305
   88SOPE   H4R 8285   5.061   5.168   3.970 -0.8558 -1.5707  0.8718
   88SOPE   H4S 8286   4.922   5.090   3.880 -2.2728 -2.4743  0.9939
   88SOPE   C25 8287   5.023   4.975   4.041 -0.8440 -0.4998 -0.9459
   88SOPE   H5R 8288   4.966   4.882   4.018  0.9779 -1.4763 -1.7726
   88SOPE   H5S 8289   5.131   4.948   4.051 -0.0173  2.1352 -1.7829
   88SOPE   C26 8290   4.982   5.032   4.173 -0.2883  0.3960 -0.1477
   88SOPE   H6R 8291   4.998   4.960   4.256 -0.3462 -0.0211 -0.4968
   88SOPE   H6S 8292   5.035   5.126   4.201 -0.7545 -0.0818  2.7008
   88SOPE   C27 8293   4.833   5.060   4.171  0.4196  0.0602  0.0419
   88SOPE   H7R 8294   4.813   5.146   4.104 -0.4572  0.1984  0.4618
   88SOPE   H7S 8295   4.773   4.975   4.134 -1.3207 -0.1352  2.9682
   88SOPE   C28 8296   4.764   5.105   4.308  0.3224 -0.2707 -1.2365
   88SOPE   H8R 8297   4.657   5.126   4.286  0.1039 -1.3148 -1.2434
   88SOPE   H8S 8298   4.768   5.016   4.375  0.0503  1.0283  0.5772
   88SOPE   C29 8299   4.841   5.218   4.364  0.1218 -0.3423  0.3695
   88SOPE   H91 8300   4.862   5.295   4.288 -0.7774 -0.7248 -0.2867
   88SOPE  C210 8301   4.885   5.226   4.489  0.0023 -0.0292 -0.2448
   88SOPE  H101 8302   4.936   5.315   4.529  0.4367 -0.8826  1.1429
   88SOPE  C211 8303   4.876   5.117   4.594  0.0009  1.7389 -0.6348
   88SOPE  H11R 8304   4.961   5.048   4.575  0.1463  1.7388 -0.0251
   88SOPE  H11S 8305   4.778   5.064   4.586  0.9095 -0.1256 -0.1100
   88SOPE  C212 8306   4.900   5.161   4.741  0.1578  0.1473  1.0412
   88SOPE  H12R 8307   4.995   5.216   4.758  1.1828 -2.0601  3.1416
   88SOPE  H12S 8308   4.891   5.069   4.804  0.9196 -0.0324  0.8921
   88SOPE  C213 8309   4.785   5.257   4.788  0.1069  0.5724 -0.3826
   88SOPE  H13R 8310   4.756   5.334   4.714 -0.8886  0.2189 -0.3782
   88SOPE  H13S 8311   4.817   5.316   4.876  0.8316  0.4262 -0.5396
   88SOPE  C214 8312   4.664   5.182   4.854  0.0729  0.4641 -0.3354
   88SOPE  H14R 8313   4.707   5.121   4.936  2.0173 -1.2543 -2.4862
   88SOPE  H14S 8314   4.619   5.106   4.788 -0.8221  0.0313  0.7524
   88SOPE  C215 8315   4.552   5.277   4.897 -0.5735 -0.1324  0.7742
   88SOPE  H15R 8316   4.488   5.301   4.809 -1.3589  0.0818  1.3928
   88SOPE  H15S 8317   4.589   5.375   4.934 -1.9208  0.3534  0.8985
   88SOPE  C216 8318   4.467   5.227   5.009  0.3772  0.1823  0.4395
   88SOPE  H16R 8319   4.521   5.193   5.100  1.3330  2.5654  0.8271
   88SOPE  H16S 8320   4.413   5.136   4.974  0.8730 -0.6554  1.7958
   88SOPE  C217 8321   4.363   5.325   5.056 -0.7082  0.0468 -0.6963
   88SOPE  H17R 8322   4.323   5.379   4.968 -0.2882 -1.2240 -1.6906
   88SOPE  H17S 8323   4.404   5.409   5.116 -2.3991  1.5337 -1.5543
   88SOPE  C218 8324   4.248   5.255   5.127  1.2200  0.1865  0.2312
   88SOPE  H18R 8325   4.168   5.330   5.143  2.5006  1.8657 -0.9366
   88SOPE  H18S 8326   4.274   5.214   5.227  1.8984  0.1694  0.0533
   88SOPE  H18T 8327   4.202   5.178   5.061 -0.7507 -1.2484  3.0664
   88SOPE   C33 8328   5.522   4.791   3.807 -0.4123  0.7374  0.3624
   88SOPE   H3X 8329   5.411   4.801   3.808 -0.8449 -2.5352  1.8149
   88SOPE   H3Y 8330   5.576   4.884   3.779  0.4858  1.4384  3.9287
   88SOPE   C34 8331   5.563   4.758   3.951  0.8697 -0.0752 -0.4858
   88SOPE   H4X 8332   5.669   4.725   3.959  0.5641 -1.7795 -2.4741
   88SOPE   H4Y 8333   5.507   4.678   4.002 -0.0987  0.9709  0.1532
   88SOPE   C35 8334   5.558   4.881   4.037  0.6225  0.2408  0.4285
   88SOPE   H5X 8335   5.453   4.916   4.027  0.7917  0.1654 -2.9517
   88SOPE   H5Y 8336   5.618   4.966   3.998  0.7590 -1.1147 -2.6400
   88SOPE   C36 8337   5.584   4.842   4.180 -0.4137  0.2608  0.6411
   88SOPE   H6X 8338   5.691   4.817   4.194 -0.3354  1.6684  3.1394
   88SOPE   H6Y 8339   5.537   4.745   4.208 -2.2419  0.3113 -1.8473
   88SOPE   C37 8340   5.541   4.955   4.271 -0.3295  0.1421 -0.7560
   88SOPE   H7X 8341   5.431   4.953   4.287 -0.4149 -1.7737 -1.3497
   88SOPE   H7Y 8342   5.551   5.054   4.222 -2.7123  0.2853 -1.0783
   88SOPE   C38 8343   5.615   4.960   4.410  0.0582  0.3454  0.3382
   88SOPE   H8X 8344   5.716   5.004   4.396  0.3857  0.2308  2.1450
   88SOPE   H8Y 8345   5.614   4.855   4.446 -1.7564 -0.0091 -0.5953
   88SOPE   C39 8346   5.537   5.038   4.513 -0.2583 -0.5135  0.1443
   88SOPE   H9X 8347   5.432   5.003   4.510 -0.7185  0.8784 -1.4652
   88SOPE   H9Y 8348   5.539   5.148   4.495  0.0985 -0.8093 -1.9825
   88SOPE  C310 8349   5.588   5.008   4.652 -0.4294 -0.4652 -1.1275
   88SOPE  H10X 8350   5.698   5.018   4.655 -0.3966 -0.6348  2.3903
   88SOPE  H10Y 8351   5.577   4.902   4.684  3.0951 -0.8998 -0.9474
   88SOPE  C311 8352   5.519   5.089   4.758 -0.1625  0.7481 -0.5360
   88SOPE  H11X 8353   5.409   5.088   4.741 -0.4225  0.1556  1.0285
   88SOPE  H11Y 8354   5.538   5.196   4.739 -0.5503  0.7457 -0.9509
   88SOPE  C312 8355   5.551   5.045   4.900  0.5342  0.0647  0.1099
   88SOPE  H12X 8356   5.655   5.081   4.917  0.2098  0.2376  1.8182
   88SOPE  H12Y 8357   5.533   4.936   4.916 -1.9132  0.6375  1.8224
   88SOPE  C313 8358   5.459   5.113   5.001  0.2404  0.2567 -0.0681
   88SOPE  H13X 8359   5.355   5.081   4.979  0.1422  1.0932 -0.8636
   88SOPE  H13Y 8360   5.467   5.223   4.989  1.1778  0.3285  0.9663
   88SOPE  C314 8361   5.484   5.075   5.145 -0.3067  0.5633 -0.1875
   88SOPE  H14X 8362   5.580   5.119   5.179 -1.3144  0.2603  3.4033
   88SOPE  H14Y 8363   5.480   4.967   5.171  2.3673  0.9528  2.3166
   88SOPE  C315 8364   5.376   5.147   5.227  0.8266 -0.5408 -0.4135
   88SOPE  H15X 8365   5.277   5.121   5.182  0.9788 -1.8214 -0.0625
   88SOPE  H15Y 8366   5.392   5.255   5.206 -0.5319 -0.3046 -0.3337
   88SOPE  C316 8367   5.386   5.113   5.375 -0.4791  0.1775 -0.0634
   88SOPE  H16X 8368   5.466   5.165   5.432 -1.4340 -0.0192  1.5174
   88SOPE  H16Y 8369   5.393   5.003   5.388 -0.0754  0.2677  0.4947
   88SOPE  C317 8370   5.255   5.151   5.445  0.2254  0.0858 -0.2887
   88SOPE  H17X 8371   5.173   5.134   5.372  0.3354 -0.7630 -0.2167
   88SOPE  H17Y 8372   5.268   5.261   5.460  1.5544 -0.3236  2.1126
   88SOPE  C318 8373   5.236   5.088   5.585 -0.2629  0.1701  0.1335
   88SOPE  H18X 8374   5.127   5.092   5.604 -0.2490 -2.7169  1.4337
   88SOPE  H18Y 8375   5.296   5.136   5.665  0.4486 -1.8532  0.8983
   88SOPE  H18Z 8376   5.263   4.980   5.575 -1.5826 -0.1479 -0.1902
   89SAPC     N 8377   2.919   4.708   7.827  0.5659 -0.0118 -0.0851
   89SAPC   C12 8378   2.958   4.757   7.692 -0.5539  0.5241  0.3301
   89SAPC  H12A 8379   2.908   4.848   7.659 -2.8356  0.0981  2.3490
   89SAPC  H12B 8380   2.924   4.693   7.611  2.1760  1.2033 -1.5074
   89SAPC   C13 8381   2.942   4.815   7.933 -0.3680 -0.3345 -0.1208
   89SAPC  H13A 8382   2.864   4.889   7.940  1.0958  1.6196 -2.5909
   89SAPC  H13B 8383   2.930   4.770   8.030  1.3328 -2.1453 -0.6987
   89SAPC  H13C 8384   3.042   4.855   7.924 -0.7009  1.0318  1.6457
   89SAPC   C14 8385   2.768   4.691   7.824 -0.6777  0.1113  0.0343
   89SAPC  H14A 8386   2.730   4.606   7.770 -1.7078  1.1538 -0.9077
   89SAPC  H14B 8387   2.731   4.679   7.925  1.1505  1.1676  0.8858
   89SAPC  H14C 8388   2.733   4.776   7.768  2.9416  0.3912 -2.1088
   89SAPC   C15 8389   2.999   4.593   7.869  0.6274 -0.1837  0.1755
   89SAPC  H15A 8390   3.104   4.613   7.879  0.0800  2.0541  2.5787
   89SAPC  H15B 8391   2.982   4.550   7.967  3.1720 -1.8158  0.0108
   89SAPC  H15C 8392   2.990   4.512   7.798 -1.4337  0.2878 -0.1614
   89SAPC   C11 8393   3.108   4.767   7.655  0.6120  0.4141 -0.3739
   89SAPC  H11A 8394   3.116   4.784   7.545 -0.5636 -0.9922 -0.7025
   89SAPC  H11B 8395   3.169   4.676   7.675  1.6256  0.7000 -1.9669
   89SAPC     P 8396   3.119   5.024   7.700 -0.1619 -0.0343 -0.1364
   89SAPC   O13 8397   2.996   5.031   7.613  0.8093 -0.7431  0.6290
   89SAPC   O14 8398   3.111   5.085   7.834  0.0751 -0.3148  0.3207
   89SAPC   O12 8399   3.162   4.877   7.729  0.4184  0.6259 -0.0251
   89SAPC   O11 8400   3.243   5.090   7.618  0.4036  0.3283 -0.6046
   89SAPC    C1 8401   3.348   5.012   7.569  0.6459 -0.0123 -0.1714
   89SAPC    HA 8402   3.442   5.070   7.580 -0.8969  2.2143  2.3016
   89SAPC    HB 8403   3.367   4.910   7.609  0.9889 -0.3021 -1.0448
   89SAPC    C2 8404   3.336   5.000   7.416  0.1622  0.1611  0.9487
   89SAPC    HS 8405   3.344   5.102   7.373 -2.9672  0.9513  2.0018
   89SAPC   O21 8406   3.212   4.937   7.384  0.0942  0.2027  0.2952
   89SAPC   C21 8407   3.125   5.012   7.322  0.1202 -0.1899  0.0544
   89SAPC   O22 8408   3.123   5.137   7.314  0.5453  0.1300 -0.2530
   89SAPC   C22 8409   3.016   4.926   7.234 -0.8158 -0.7273 -0.5437
   89SAPC   H2R 8410   3.027   4.817   7.255 -1.0035 -0.2892  2.0806
   89SAPC   H2S 8411   2.920   4.969   7.272 -1.1099 -2.2115  0.4939
   89SAPC    C3 8412   3.452   4.917   7.351 -0.2977  0.3073  0.3107
   89SAPC    HX 8413   3.413   4.814   7.369  0.7570 -0.2103 -0.2781
   89SAPC    HY 8414   3.544   4.917   7.413 -0.6045  0.3160  0.7682
   89SAPC   O31 8415   3.475   4.953   7.214  0.0958  0.1157  0.3636
   89SAPC   C31 8416   3.507   4.853   7.132 -0.1087  0.0799  0.2930
   89SAPC   O32 8417   3.498   4.731   7.160 -0.2810 -0.2210  0.0289
   89SAPC   C32 8418   3.547   4.915   6.995 -0.5026 -0.1985  0.3736
   89SAPC   H2X 8419   3.639   4.977   7.003 -0.8013 -0.0071  2.9176
   89SAPC   H2Y 8420   3.471   4.993   6.971 -0.9978 -0.6181  0.5572
   89SAPC   C23 8421   3.010   4.948   7.084 -0.8195 -0.6558 -0.4883
   89SAPC   H3R 8422   2.974   5.052   7.068  1.5334  0.4313  0.9102
   89SAPC   H3S 8423   2.932   4.881   7.041 -1.9703 -0.6362  1.4729
   89SAPC   C24 8424   3.142   4.936   7.008  0.0186  0.2503  0.1063
   89SAPC   H4R 8425   3.222   4.989   7.064 -0.1308 -2.3495  3.0420
   89SAPC   H4S 8426   3.128   4.986   6.910  0.1175 -0.5207 -0.3081
   89SAPC   C25 8427   3.189   4.792   6.985 -1.0586 -0.1579 -0.8253
   89SAPC   H5R 8428   3.208   4.733   7.076  0.4834  2.4363  0.6545
   89SAPC   C26 8429   3.177   4.727   6.870  0.0257 -0.1027  0.8208
   89SAPC   H6R 8430   3.205   4.621   6.868  1.0380  0.1537  0.8206
   89SAPC   C27 8431   3.146   4.800   6.736 -0.9771 -0.2178 -0.3822
   89SAPC   H7R 8432   3.147   4.910   6.743  1.3980 -0.0544 -1.9366
   89SAPC   H7S 8433   3.038   4.789   6.713 -0.6815  0.1684 -2.0616
   89SAPC   C28 8434   3.241   4.740   6.636 -0.3332 -0.4033  0.0766
   89SAPC   H8R 8435   3.339   4.701   6.668  0.3814  0.7447 -0.6172
   89SAPC   C29 8436   3.209   4.720   6.508 -0.4977  0.5993 -0.0413
   89SAPC   H9R 8437   3.281   4.685   6.433 -0.0177  1.4529  0.0047
   89SAPC  C210 8438   3.083   4.752   6.439 -0.3258 -1.0769  0.4723
   89SAPC  H10R 8439   2.995   4.736   6.504  0.2476 -0.7947  1.3398
   89SAPC  H10S 8440   3.073   4.690   6.348 -2.1833  0.1424 -0.2048
   89SAPC  C211 8441   3.067   4.899   6.397 -0.0211  0.4272 -0.4296
   89SAPC  H11R 8442   3.072   4.962   6.487 -2.9535 -2.8081  2.2989
   89SAPC  C212 8443   3.013   4.960   6.291  0.3415 -0.6458  0.2772
   89SAPC  H12R 8444   3.017   5.068   6.272  0.1732 -0.6484  0.2237
   89SAPC  C213 8445   2.986   4.874   6.170 -0.0635  0.0798 -0.1061
   89SAPC  H13R 8446   2.897   4.918   6.121  0.4844 -0.2213 -1.4051
   89SAPC  H13S 8447   2.949   4.772   6.194 -0.2372  0.1160 -0.2167
   89SAPC  C214 8448   3.105   4.886   6.068 -0.5379 -0.0084 -0.4009
   89SAPC  H14R 8449   3.103   4.982   6.015  2.1755 -1.5190 -3.6867
   89SAPC  C215 8450   3.195   4.793   6.027  0.0718 -0.1070  0.0949
   89SAPC  H15R 8451   3.274   4.814   5.954 -0.2678  0.6838 -0.0495
   89SAPC  C216 8452   3.203   4.649   6.088  0.3772 -0.7252  0.6306
   89SAPC  H16R 8453   3.111   4.620   6.143 -0.0958  0.0422  0.2485
   89SAPC  H16S 8454   3.299   4.642   6.143  1.3778 -2.1280 -1.1777
   89SAPC  C217 8455   3.205   4.543   5.975  0.0467 -0.3001  0.4074
   89SAPC  H17R 8456   3.190   4.444   6.023  1.7951 -0.0850  1.4715
   89SAPC  H17S 8457   3.302   4.531   5.922 -0.7515 -0.6893 -1.0361
   89SAPC  C218 8458   3.099   4.560   5.867 -0.6427 -0.5861  0.4679
   89SAPC  H18R 8459   3.107   4.663   5.826 -0.4276  0.6567  3.3378
   89SAPC  H18S 8460   3.007   4.561   5.930  1.9161 -0.4281  4.5504
   89SAPC  C219 8461   3.104   4.456   5.757 -0.0915  1.0661  0.6415
   89SAPC  H19R 8462   3.092   4.355   5.800  1.1559  1.0687  1.0572
   89SAPC  H19S 8463   3.207   4.438   5.718  0.4255  2.5789  1.1825
   89SAPC  C220 8464   3.010   4.484   5.642 -0.6501 -0.4822 -0.2944
   89SAPC  H20R 8465   3.030   4.400   5.571  1.6048  0.1619 -0.5005
   89SAPC  H20S 8466   3.031   4.582   5.594  1.5542 -1.4169 -1.4013
   89SAPC  H20T 8467   2.900   4.483   5.661 -0.5584  0.1419  0.3050
   89SAPC   C33 8468   3.568   4.811   6.882 -0.2462  0.6620  0.3883
   89SAPC   H3X 8469   3.475   4.752   6.868 -0.8954  1.6991  0.1918
   89SAPC   H3Y 8470   3.646   4.736   6.906  1.1840  1.2224 -2.1579
   89SAPC   C34 8471   3.606   4.890   6.759 -0.1059 -0.0661 -0.2825
   89SAPC   H4X 8472   3.692   4.956   6.782 -1.0646  0.9055  0.5971
   89SAPC   H4Y 8473   3.528   4.962   6.727 -1.0162 -1.2078 -0.7199
   89SAPC   C35 8474   3.643   4.804   6.636 -0.3182  0.3507 -0.3668
   89SAPC   H5X 8475   3.568   4.725   6.615  0.7138 -1.2858  1.6972
   89SAPC   H5Y 8476   3.739   4.749   6.647 -0.4021 -0.1775 -1.9684
   89SAPC   C36 8477   3.661   4.887   6.509  0.7176 -0.4534  0.4849
   89SAPC   H6X 8478   3.736   4.968   6.521 -0.0649  0.3381  0.2020
   89SAPC   H6Y 8479   3.565   4.943   6.498  0.4105 -1.5299 -4.3236
   89SAPC   C37 8480   3.685   4.797   6.391  0.1824 -0.6423 -0.3989
   89SAPC   H7X 8481   3.639   4.697   6.402  1.2170 -1.0418  0.4306
   89SAPC   H7Y 8482   3.794   4.777   6.386  0.3513  0.2570 -0.4630
   89SAPC   C38 8483   3.634   4.860   6.265 -0.0243  0.1414  0.9019
   89SAPC   H8X 8484   3.687   4.956   6.253  0.8632 -0.3293  0.9971
   89SAPC   H8Y 8485   3.524   4.873   6.271 -0.4858 -1.7949 -1.6324
   89SAPC   C39 8486   3.655   4.779   6.131 -0.1431  0.0421  0.2866
   89SAPC   H9X 8487   3.615   4.676   6.142  0.1542 -0.1981 -0.7513
   89SAPC   H9Y 8488   3.758   4.784   6.089 -0.0161 -0.9263  0.4555
   89SAPC  C310 8489   3.573   4.833   6.023  0.2159  0.5945  0.8001
   89SAPC  H10X 8490   3.599   4.936   5.990  1.1883 -0.1354 -0.8634
   89SAPC  H10Y 8491   3.464   4.826   6.041  0.3150  0.4766  1.3569
   89SAPC  C311 8492   3.599   4.753   5.894 -0.0768 -0.1187  0.1172
   89SAPC  H11X 8493   3.584   4.644   5.908 -2.1056  0.4414  3.2036
   89SAPC  H11Y 8494   3.706   4.755   5.865 -0.5601  0.9485 -1.7869
   89SAPC  C312 8495   3.520   4.810   5.771 -0.1314 -0.6416 -0.7361
   89SAPC  H12X 8496   3.559   4.910   5.743 -1.1259 -0.3048 -0.9755
   89SAPC  H12Y 8497   3.415   4.819   5.807  0.3987  2.4777  0.3261
   89SAPC  C313 8498   3.517   4.719   5.648  0.6343 -0.5620 -0.7505
   89SAPC  H13X 8499   3.419   4.730   5.596  0.5743 -3.0680 -1.3112
   89SAPC  H13Y 8500   3.508   4.611   5.674 -0.3898 -0.6208 -1.2820
   89SAPC  C314 8501   3.631   4.749   5.556 -0.1985  0.4544  0.8060
   89SAPC  H14X 8502   3.724   4.717   5.608  0.2412 -2.1348 -1.3714
   89SAPC  H14Y 8503   3.627   4.858   5.536 -1.9897  0.1383 -0.7724
   89SAPC  C315 8504   3.633   4.668   5.429 -0.6307 -0.6042  0.3696
   89SAPC  H15X 8505   3.541   4.697   5.373  1.1080 -0.0286 -2.3723
   89SAPC  H15Y 8506   3.646   4.560   5.450  0.9891 -0.0539  2.5362
   89SAPC  C316 8507   3.757   4.697   5.341  0.0970  0.3247 -0.3619
   89SAPC  H16X 8508   3.768   4.807   5.331 -0.2787  0.3067 -1.0251
   89SAPC  H16Y 8509   3.739   4.659   5.238  0.4162  0.1704 -0.3624
   89SAPC  C317 8510   3.882   4.643   5.398 -0.5004 -0.2826 -0.6202
   89SAPC  H17X 8511   3.858   4.537   5.423 -0.0702 -0.3603 -0.5209
   89SAPC  H17Y 8512   3.916   4.699   5.488 -2.6512 -0.0240  0.0790
   89SAPC  C318 8513   4.001   4.627   5.306 -0.1991  0.0847 -0.0750
   89SAPC  H18X 8514   3.982   4.589   5.203  1.6773  0.1285 -0.4859
   89SAPC  H18Y 8515   4.078   4.569   5.362 -1.2004 -1.0863  0.1374
   89SAPC  H18Z 8516   4.042   4.728   5.286 -0.0107 -0.3773 -2.3731
   90SAPC     N 8517   5.541   2.192   7.696  0.5267 -0.3617  0.9068
   90SAPC   C12 8518   5.479   2.154   7.553  0.3954  0.4404 -0.1409
   90SAPC  H12A 8519   5.561   2.110   7.500  2.8523  0.5957  3.2073
   90SAPC  H12B 8520   5.445   2.245   7.506  1.0374 -0.0754 -1.6611
   90SAPC   C13 8521   5.567   2.074   7.772  0.0370 -0.5673 -0.1006
   90SAPC  H13A 8522   5.578   2.086   7.879  2.5376 -1.7233 -0.1765
   90SAPC  H13B 8523   5.476   2.016   7.762 -1.2470  1.5114 -1.3285
   90SAPC  H13C 8524   5.649   2.023   7.725 -0.4359 -0.9438 -0.5293
   90SAPC   C14 8525   5.666   2.278   7.672  0.3021  0.7673 -0.6924
   90SAPC  H14A 8526   5.756   2.226   7.646 -1.2359 -2.1845 -0.5651
   90SAPC  H14B 8527   5.631   2.341   7.592  0.2189  0.8838 -0.5661
   90SAPC  H14C 8528   5.691   2.325   7.766  1.9666  0.8362 -1.1504
   90SAPC   C15 8529   5.441   2.281   7.775  0.1755  0.9886  0.0172
   90SAPC  H15A 8530   5.497   2.309   7.863  0.3148  0.5418  0.0714
   90SAPC  H15B 8531   5.415   2.369   7.718  0.5568  1.5488  0.6977
   90SAPC  H15C 8532   5.353   2.220   7.791 -1.2252  3.4464  2.6120
   90SAPC   C11 8533   5.350   2.063   7.550 -0.2004  0.2433 -0.4657
   90SAPC  H11A 8534   5.332   2.036   7.444 -0.0335 -0.0518 -0.4202
   90SAPC  H11B 8535   5.273   2.127   7.598  0.3643 -0.8248  2.0355
   90SAPC     P 8536   5.254   1.831   7.619 -0.3595 -0.3368 -0.0398
   90SAPC   O13 8537   5.285   1.735   7.727 -0.1991 -0.0377 -0.3456
   90SAPC   O14 8538   5.127   1.909   7.622 -0.0872  0.2147 -0.5550
   90SAPC   O12 8539   5.368   1.940   7.616  0.2994  0.0963  0.2352
   90SAPC   O11 8540   5.267   1.751   7.481  0.0875  0.8762  0.7732
   90SAPC    C1 8541   5.399   1.741   7.419  0.2938 -0.1668  0.5475
   90SAPC    HA 8542   5.416   1.833   7.358 -4.6751  1.3818  1.0464
   90SAPC    HB 8543   5.482   1.731   7.491  0.6001  2.4652  0.6608
   90SAPC    C2 8544   5.397   1.623   7.321 -0.1241 -0.9184  0.4192
   90SAPC    HS 8545   5.402   1.533   7.385 -0.8161  0.1008  1.9834
   90SAPC   O21 8546   5.510   1.641   7.231 -0.2668 -0.5701 -0.7708
   90SAPC   C21 8547   5.601   1.551   7.251 -0.7353  0.2738 -0.2417
   90SAPC   O22 8548   5.603   1.464   7.339  0.1105  0.0506 -0.4257
   90SAPC   C22 8549   5.715   1.560   7.151 -0.2803 -0.3072  0.8016
   90SAPC   H2R 8550   5.707   1.657   7.097  0.2986  0.4563  2.0523
   90SAPC   H2S 8551   5.816   1.570   7.195  0.6811  1.9454 -1.6553
   90SAPC    C3 8552   5.254   1.617   7.248 -0.3249  0.1642  1.0772
   90SAPC    HX 8553   5.228   1.723   7.228  0.1124  0.0719 -0.0246
   90SAPC    HY 8554   5.173   1.576   7.312 -1.9815  0.3531 -0.7840
   90SAPC   O31 8555   5.259   1.545   7.119  0.0516  0.4377  1.1658
   90SAPC   C31 8556   5.251   1.412   7.129 -0.7217 -0.0758 -0.3264
   90SAPC   O32 8557   5.274   1.352   7.232  0.1565  0.1035  0.4866
   90SAPC   C32 8558   5.204   1.354   6.993 -0.1116 -0.3053  1.1199
   90SAPC   H2X 8559   5.098   1.324   7.005 -1.2238  2.6247 -0.3317
   90SAPC   H2Y 8560   5.269   1.267   6.969  0.3419  0.6281 -1.2733
   90SAPC   C23 8561   5.725   1.427   7.067 -0.4309 -0.1072  0.4157
   90SAPC   H3R 8562   5.646   1.435   6.989 -0.9958  2.6957  1.1591
   90SAPC   H3S 8563   5.708   1.339   7.133  1.0459  0.9515  2.3069
   90SAPC   C24 8564   5.865   1.399   6.999  0.0320  0.1625  0.0137
   90SAPC   H4R 8565   5.930   1.388   7.088  1.4230 -0.1367 -1.0116
   90SAPC   H4S 8566   5.895   1.491   6.944  0.8342  0.3681  0.7692
   90SAPC   C25 8567   5.870   1.264   6.924  0.5424 -0.3458  0.4719
   90SAPC   H5R 8568   5.842   1.175   6.982 -1.4109 -0.1233 -0.0503
   90SAPC   C26 8569   5.892   1.245   6.787  0.4855 -0.1105  0.2570
   90SAPC   H6R 8570   5.885   1.144   6.743  1.8021 -0.8324  1.6255
   90SAPC   C27 8571   5.925   1.348   6.677  0.2379 -0.4524  0.1293
   90SAPC   H7R 8572   5.897   1.443   6.728 -1.9234 -1.2889  0.6133
   90SAPC   H7S 8573   5.847   1.342   6.597 -0.2385  1.1248  0.4445
   90SAPC   C28 8574   6.063   1.341   6.613  0.3679  0.8492  0.3664
   90SAPC   H8R 8575   6.140   1.310   6.684  0.3917  0.6752  0.2654
   90SAPC   C29 8576   6.104   1.380   6.496 -0.3188 -0.7600  0.4759
   90SAPC   H9R 8577   6.211   1.373   6.470 -0.3897  2.5457 -1.2759
   90SAPC  C210 8578   6.012   1.443   6.391 -0.7345  1.1441  0.0047
   90SAPC  H10R 8579   6.012   1.553   6.405  1.7748  1.4360 -1.6499
   90SAPC  H10S 8580   5.907   1.408   6.405 -0.6681  1.4430  1.3867
   90SAPC  C211 8581   6.057   1.417   6.247 -0.0306  1.1520 -0.0442
   90SAPC  H11R 8582   6.157   1.458   6.223  0.3849 -0.3186 -0.9354
   90SAPC  C212 8583   5.979   1.371   6.150  0.0229 -0.4046 -0.4118
   90SAPC  H12R 8584   6.012   1.350   6.047 -1.2895 -0.4885 -0.8361
   90SAPC  C213 8585   5.832   1.334   6.163  0.6482  0.4112  0.0183
   90SAPC  H13R 8586   5.784   1.410   6.227 -1.4143 -0.0281 -0.9165
   90SAPC  H13S 8587   5.813   1.235   6.211  0.9895  1.1302  1.6995
   90SAPC  C214 8588   5.750   1.357   6.037 -0.4211  1.0738 -0.0584
   90SAPC  H14R 8589   5.717   1.461   6.025 -1.1798  1.0540  1.5609
   90SAPC  C215 8590   5.715   1.263   5.942 -0.1581 -0.9042 -0.4138
   90SAPC  H15R 8591   5.671   1.288   5.844  1.0437 -0.6880 -0.9078
   90SAPC  C216 8592   5.762   1.119   5.950 -0.4832 -0.5944  0.1154
   90SAPC  H16R 8593   5.694   1.062   6.016 -1.3141  1.9064  1.5681
   90SAPC  H16S 8594   5.869   1.101   5.975 -0.7782 -1.5289  0.7712
   90SAPC  C217 8595   5.760   1.056   5.810 -0.7546  0.2896 -0.0636
   90SAPC  H17R 8596   5.836   0.975   5.809 -0.2303  0.7638  0.7515
   90SAPC  H17S 8597   5.785   1.131   5.732 -1.0048 -1.3912 -1.8527
   90SAPC  C218 8598   5.618   1.002   5.781  0.2373  0.9358 -0.0856
   90SAPC  H18R 8599   5.528   1.067   5.784  0.0788  0.8525 -1.7762
   90SAPC  H18S 8600   5.620   0.924   5.859  2.6377  0.6709 -0.3423
   90SAPC  C219 8601   5.618   0.934   5.645  0.3112 -0.0717  0.4249
   90SAPC  H19R 8602   5.706   0.867   5.645  0.8321  0.5765  2.1832
   90SAPC  H19S 8603   5.636   1.006   5.562  0.0083 -0.6291 -0.1377
   90SAPC  C220 8604   5.487   0.858   5.616  0.3619  0.0860 -0.1879
   90SAPC  H20R 8605   5.453   0.794   5.700 -0.6314  0.8977  0.0496
   90SAPC  H20S 8606   5.497   0.799   5.522 -0.6598  1.5879 -1.2927
   90SAPC  H20T 8607   5.408   0.935   5.601  1.7265  1.4202 -0.6821
   90SAPC   C33 8608   5.212   1.456   6.870 -0.1842  0.4512 -0.2542
   90SAPC   H3X 8609   5.288   1.534   6.893 -1.9763  2.3418 -0.4853
   90SAPC   H3Y 8610   5.114   1.508   6.861 -0.2298  0.1006 -1.9845
   90SAPC   C34 8611   5.242   1.390   6.740  0.8350  0.0045 -0.3624
   90SAPC   H4X 8612   5.172   1.306   6.720  0.1581  1.4000 -5.1403
   90SAPC   H4Y 8613   5.338   1.338   6.756  1.1676  0.7383  0.0654
   90SAPC   C35 8614   5.246   1.477   6.619  0.1191  0.1868  0.4969
   90SAPC   H5X 8615   5.319   1.561   6.627 -0.2877  0.8196 -1.8027
   90SAPC   H5Y 8616   5.153   1.530   6.590  0.9884  1.1957 -0.5858
   90SAPC   C36 8617   5.277   1.400   6.493 -0.0355  0.2500 -0.3163
   90SAPC   H6X 8618   5.216   1.307   6.490 -2.0492  1.3211  2.7891
   90SAPC   H6Y 8619   5.385   1.375   6.494 -0.0252  0.2807 -0.5853
   90SAPC   C37 8620   5.268   1.488   6.367 -0.8571 -0.3238  0.9789
   90SAPC   H7X 8621   5.202   1.575   6.384  0.6054  0.3640  3.6390
   90SAPC   H7Y 8622   5.237   1.434   6.274  1.3142 -0.3653  0.2186
   90SAPC   C38 8623   5.402   1.570   6.351  0.2077 -0.3574 -0.0719
   90SAPC   H8X 8624   5.485   1.506   6.314  2.6449  2.4358  0.1403
   90SAPC   H8Y 8625   5.426   1.615   6.450  0.2204 -0.7728  0.1134
   90SAPC   C39 8626   5.385   1.687   6.249 -0.5408  0.3339  0.4105
   90SAPC   H9X 8627   5.475   1.749   6.232  0.4452 -1.6252 -2.1654
   90SAPC   H9Y 8628   5.320   1.759   6.303  0.4688  1.8435 -0.3373
   90SAPC  C310 8629   5.331   1.660   6.108 -0.0873  0.2455 -0.1931
   90SAPC  H10X 8630   5.328   1.744   6.034  1.0291 -0.7422 -1.4200
   90SAPC  H10Y 8631   5.226   1.631   6.127  0.4054 -1.7317 -0.2718
   90SAPC  C311 8632   5.401   1.554   6.032  0.1382 -0.2950 -0.3149
   90SAPC  H11X 8633   5.370   1.461   6.083 -1.2141  0.6575  0.6893
   90SAPC  H11Y 8634   5.511   1.567   6.041 -0.0063 -0.0392  1.5432
   90SAPC  C312 8635   5.369   1.553   5.884  0.6084  0.0494 -0.0841
   90SAPC  H12X 8636   5.394   1.651   5.838  0.9554 -1.3589 -3.1187
   90SAPC  H12Y 8637   5.260   1.545   5.868  0.9976 -1.7805 -2.4389
   90SAPC  C313 8638   5.450   1.446   5.819 -0.5016 -0.6779 -0.0599
   90SAPC  H13X 8639   5.466   1.359   5.886 -1.7777  0.7768  2.2480
   90SAPC  H13Y 8640   5.546   1.498   5.801 -1.7024  0.8464 -2.7840
   90SAPC  C314 8641   5.393   1.390   5.689 -0.4710  0.3457 -0.9254
   90SAPC  H14X 8642   5.474   1.316   5.669  0.7144  0.7630  1.8607
   90SAPC  H14Y 8643   5.401   1.465   5.607 -1.1623  3.6764  1.8072
   90SAPC  C315 8644   5.251   1.328   5.687 -1.0689 -0.0742  0.1742
   90SAPC  H15X 8645   5.224   1.290   5.586 -2.6067 -1.1673  0.9528
   90SAPC  H15Y 8646   5.179   1.411   5.702  1.0319  2.2805 -1.8293
   90SAPC  C316 8647   5.228   1.208   5.790  0.3556  0.0984  0.2515
   90SAPC  H16X 8648   5.288   1.221   5.883  1.3440 -2.4437  0.0727
   90SAPC  H16Y 8649   5.261   1.112   5.744 -2.7729 -0.8379 -0.2585
   90SAPC  C317 8650   5.084   1.192   5.825  0.0010  1.1329 -0.3708
   90SAPC  H17X 8651   5.056   1.292   5.864 -1.1854  0.6717  0.0333
   90SAPC  H17Y 8652   5.076   1.114   5.904  1.3680  2.7189  1.4122
   90SAPC  C318 8653   4.990   1.166   5.699 -0.3536 -0.3797 -0.2682
   90SAPC  H18X 8654   5.034   1.077   5.650 -1.6312 -1.4300  0.4310
   90SAPC  H18Y 8655   4.995   1.251   5.627  0.3777 -0.7440 -0.6518
   90SAPC  H18Z 8656   4.888   1.135   5.730  0.2806 -1.3786  0.8916
   91SAPC     N 8657   3.478   5.632   7.902 -0.0881  0.2146 -0.0357
   91SAPC   C12 8658   3.560   5.525   7.830 -0.8376 -0.1976 -0.6825
   91SAPC  H12A 8659   3.608   5.563   7.741  1.1718 -1.5004 -0.2043
   91SAPC  H12B 8660   3.494   5.446   7.797 -0.8818 -1.8661  2.9942
   91SAPC   C13 8661   3.546   5.741   7.978 -0.5944  0.6153 -0.2443
   91SAPC  H13A 8662   3.475   5.817   8.006 -2.7167 -1.0268 -0.9687
   91SAPC  H13B 8663   3.594   5.696   8.064 -0.3145  2.6374  0.7104
   91SAPC  H13C 8664   3.620   5.794   7.920 -1.0993  0.7581 -0.7661
   91SAPC   C14 8665   3.389   5.692   7.804 -0.1222 -0.0215  0.4318
   91SAPC  H14A 8666   3.452   5.739   7.730 -0.8214 -1.6621 -1.2948
   91SAPC  H14B 8667   3.332   5.630   7.736  1.0208 -1.5153  0.7673
   91SAPC  H14C 8668   3.326   5.769   7.846 -0.1886  0.3703 -0.3653
   91SAPC   C15 8669   3.399   5.557   8.001  0.7866  0.4682 -0.6108
   91SAPC  H15A 8670   3.446   5.508   8.085 -3.0356  1.3115  2.3002
   91SAPC  H15B 8671   3.321   5.622   8.035 -0.5677 -0.0995 -2.4497
   91SAPC  H15C 8672   3.357   5.473   7.947  0.6163 -1.7519  2.7014
   91SAPC   C11 8673   3.668   5.464   7.918 -0.1733  0.7251 -0.1281
   91SAPC  H11A 8674   3.727   5.550   7.956  0.8784 -0.3363  0.7666
   91SAPC  H11B 8675   3.742   5.404   7.861 -0.0178  0.7845  0.0080
   91SAPC     P 8676   3.582   5.236   8.029  0.3394 -0.3410  0.1004
   91SAPC   O13 8677   3.660   5.182   8.141 -0.0255  0.3376  0.5597
   91SAPC   O14 8678   3.439   5.212   8.016  0.0351 -0.1981  0.2011
   91SAPC   O12 8679   3.610   5.383   8.028 -0.5202  0.0134  0.6603
   91SAPC   O11 8680   3.654   5.185   7.898 -0.2304  0.0171 -0.1268
   91SAPC    C1 8681   3.692   5.047   7.892 -0.1024 -0.0949 -0.0379
   91SAPC    HA 8682   3.738   5.010   7.985  1.1682  0.4891 -0.4080
   91SAPC    HB 8683   3.604   4.981   7.881 -0.4165  0.1716  0.8101
   91SAPC    C2 8684   3.792   5.012   7.775 -0.0486  0.4848 -0.1834
   91SAPC    HS 8685   3.894   5.052   7.797  0.2273 -0.1129 -0.3496
   91SAPC   O21 8686   3.746   5.071   7.652  0.1456 -0.4794  0.1368
   91SAPC   C21 8687   3.770   5.203   7.639  0.1710  0.5877 -0.3674
   91SAPC   O22 8688   3.860   5.267   7.686 -0.4927  0.5291 -0.2923
   91SAPC   C22 8689   3.661   5.255   7.545 -0.1272 -0.3987 -0.2767
   91SAPC   H2R 8690   3.658   5.189   7.455  1.5315 -3.0405  1.4764
   91SAPC   H2S 8691   3.564   5.241   7.596 -1.2414  2.1459 -1.5376
   91SAPC    C3 8692   3.799   4.865   7.744  0.9298  0.6142  0.2152
   91SAPC    HX 8693   3.696   4.823   7.745  0.9700  0.5206  0.6599
   91SAPC    HY 8694   3.860   4.828   7.829  1.3184 -2.6637 -1.3434
   91SAPC   O31 8695   3.890   4.832   7.635 -0.8005  0.3261  0.0033
   91SAPC   C31 8696   3.831   4.762   7.533 -0.3469 -0.7505  0.2764
   91SAPC   O32 8697   3.711   4.746   7.521 -0.5130  0.0215 -0.1997
   91SAPC   C32 8698   3.937   4.730   7.424 -0.5959  0.2786 -0.6192
   91SAPC   H2X 8699   3.951   4.620   7.430  0.9864  0.4317 -1.0607
   91SAPC   H2Y 8700   4.030   4.779   7.459 -0.9978  0.8162 -0.2755
   91SAPC   C23 8701   3.678   5.404   7.503 -0.4897 -0.1690 -0.0266
   91SAPC   H3R 8702   3.750   5.414   7.420 -1.5332 -0.3363 -0.9701
   91SAPC   H3S 8703   3.726   5.454   7.590 -1.6810  0.3619  0.3574
   91SAPC   C24 8704   3.543   5.474   7.471  0.3972 -0.3799 -0.3721
   91SAPC   H4R 8705   3.581   5.577   7.450 -1.4797  0.7596  1.3594
   91SAPC   H4S 8706   3.472   5.477   7.556 -0.1036 -0.5579 -0.7870
   91SAPC   C25 8707   3.478   5.419   7.343  0.0513  0.3757 -0.0107
   91SAPC   H5R 8708   3.391   5.352   7.353 -0.0753  0.0707 -2.5521
   91SAPC   C26 8709   3.509   5.453   7.216 -0.6402 -0.9617 -0.1076
   91SAPC   H6R 8710   3.468   5.390   7.136  1.9767 -2.1128 -0.6507
   91SAPC   C27 8711   3.620   5.544   7.168 -0.2576 -0.0155 -0.7864
   91SAPC   H7R 8712   3.641   5.509   7.065 -1.2786 -1.0197 -0.6734
   91SAPC   H7S 8713   3.718   5.534   7.219 -0.5312  0.4183 -0.1673
   91SAPC   C28 8714   3.570   5.690   7.180 -0.0890  0.0065 -0.6227
   91SAPC   H8R 8715   3.519   5.729   7.269  2.0146  0.0319  0.6495
   91SAPC   C29 8716   3.578   5.774   7.081  0.6657 -0.1676  0.6056
   91SAPC   H9R 8717   3.534   5.874   7.093  2.1511  0.3419  2.2841
   91SAPC  C210 8718   3.627   5.766   6.939  0.3776 -0.4603  0.0464
   91SAPC  H10R 8719   3.733   5.735   6.944  1.1646  1.9501 -0.4981
   91SAPC  H10S 8720   3.626   5.868   6.896  0.4814  0.2259  1.6031
   91SAPC  C211 8721   3.544   5.683   6.847  0.2227 -0.0028  0.0634
   91SAPC  H11R 8722   3.470   5.624   6.904 -0.2580  1.0522  0.5559
   91SAPC  C212 8723   3.545   5.672   6.710  0.0604 -0.3967 -0.4126
   91SAPC  H12R 8724   3.479   5.599   6.661 -3.0550  0.8783  1.5729
   91SAPC  C213 8725   3.644   5.743   6.618 -0.8063  1.0353 -0.2299
   91SAPC  H13R 8726   3.713   5.811   6.671  0.0679  0.5692 -0.7504
   91SAPC  H13S 8727   3.587   5.811   6.551 -0.3861  3.6113  1.8632
   91SAPC  C214 8728   3.722   5.633   6.551 -0.2244  0.5163  0.1017
   91SAPC  H14R 8729   3.743   5.550   6.621 -0.6369  0.9668  0.7733
   91SAPC  C215 8730   3.764   5.629   6.426  0.1826  0.1738  0.6481
   91SAPC  H15R 8731   3.821   5.544   6.387 -1.1965 -0.2709 -0.5104
   91SAPC  C216 8732   3.744   5.737   6.324 -0.3464  0.6412  0.3321
   91SAPC  H16R 8733   3.753   5.839   6.367  2.6985  0.5906  0.0718
   91SAPC  H16S 8734   3.645   5.733   6.274 -0.5589 -0.6303  0.8128
   91SAPC  C217 8735   3.854   5.725   6.216  0.1224 -0.0053 -0.7721
   91SAPC  H17R 8736   3.949   5.723   6.273 -0.6161 -1.3448  0.4766
   91SAPC  H17S 8737   3.850   5.819   6.156 -0.8791  1.0554  0.8618
   91SAPC  C218 8738   3.847   5.609   6.122 -0.2137  0.2327  0.6435
   91SAPC  H18R 8739   3.748   5.612   6.071  0.3387  1.5367 -0.4049
   91SAPC  H18S 8740   3.849   5.512   6.176 -2.7301  0.0122  0.4338
   91SAPC  C219 8741   3.971   5.602   6.027  0.2541 -0.7951 -0.0933
   91SAPC  H19R 8742   3.980   5.500   5.984 -0.2811 -0.3020 -1.4391
   91SAPC  H19S 8743   4.066   5.626   6.080 -0.2610  1.1496  0.0454
   91SAPC  C220 8744   3.955   5.693   5.906  0.0423  0.5087  0.6623
   91SAPC  H20R 8745   3.912   5.790   5.941 -1.6013 -0.2914  0.9649
   91SAPC  H20S 8746   3.885   5.649   5.831 -0.9964  0.4018  1.6679
   91SAPC  H20T 8747   4.053   5.717   5.860  0.2934 -0.9278  0.4077
   91SAPC   C33 8748   3.891   4.773   7.288  0.0785  0.0742  0.6785
   91SAPC   H3X 8749   3.872   4.882   7.295  2.1067  0.3999  1.7671
   91SAPC   H3Y 8750   3.803   4.717   7.249  0.7225 -1.9012  1.8613
   91SAPC   C34 8751   4.006   4.764   7.187  1.3044  0.3925 -0.1747
   91SAPC   H4X 8752   4.042   4.661   7.164  0.0295  0.3940 -2.5744
   91SAPC   H4Y 8753   4.083   4.830   7.232 -0.1704  1.1324  1.3704
   91SAPC   C35 8754   3.972   4.820   7.052  0.2934  0.5258  0.0006
   91SAPC   H5X 8755   3.940   4.926   7.046 -1.6998 -0.1018 -1.9081
   91SAPC   H5Y 8756   3.886   4.753   7.028  1.4391 -0.6966 -0.7873
   91SAPC   C36 8757   4.079   4.798   6.945 -1.0296  0.5057  0.2421
   91SAPC   H6X 8758   4.096   4.688   6.937 -0.9076  0.6449 -1.9389
   91SAPC   H6Y 8759   4.172   4.856   6.960 -0.6535 -0.5757  2.5747
   91SAPC   C37 8760   4.019   4.846   6.809 -1.4480 -0.6451  0.0572
   91SAPC   H7X 8761   3.989   4.953   6.809 -0.4092 -0.3469 -0.1197
   91SAPC   H7Y 8762   3.934   4.778   6.785 -2.4538  0.8187 -0.7472
   91SAPC   C38 8763   4.129   4.830   6.698 -0.0451 -0.4177 -0.5680
   91SAPC   H8X 8764   4.174   4.729   6.712 -1.1079 -0.6930  1.1517
   91SAPC   H8Y 8765   4.207   4.909   6.704 -1.9126  1.5615 -1.0741
   91SAPC   C39 8766   4.065   4.833   6.564 -0.6456 -0.4859 -0.7068
   91SAPC   H9X 8767   4.041   4.938   6.535  0.0373 -0.7995 -2.5582
   91SAPC   H9Y 8768   3.976   4.766   6.565  0.5925 -2.2180 -1.6150
   91SAPC  C310 8769   4.154   4.764   6.464  0.1028 -0.6028 -0.0479
   91SAPC  H10X 8770   4.180   4.666   6.508  0.7595 -1.5178 -2.3358
   91SAPC  H10Y 8771   4.248   4.820   6.447 -1.1453  0.6570 -3.7048
   91SAPC  C311 8772   4.080   4.751   6.327  0.4316  0.0958 -0.0791
   91SAPC  H11X 8773   4.052   4.855   6.297 -2.5565 -0.5614  0.0608
   91SAPC  H11Y 8774   3.987   4.690   6.332 -0.3810  1.1450 -1.5053
   91SAPC  C312 8775   4.159   4.692   6.208 -0.5664  0.2587 -0.3430
   91SAPC  H12X 8776   4.207   4.595   6.231  2.0849  1.6699  0.3829
   91SAPC  H12Y 8777   4.241   4.766   6.201  0.7468 -1.2518 -1.6377
   91SAPC  C313 8778   4.085   4.693   6.077  0.4315  0.1115  0.1269
   91SAPC  H13X 8779   4.080   4.800   6.051  1.7373 -0.2501 -1.8397
   91SAPC  H13Y 8780   3.978   4.669   6.097 -0.1392  1.4249 -1.1885
   91SAPC  C314 8781   4.158   4.624   5.960 -0.9091  0.2224 -0.0051
   91SAPC  H14X 8782   4.153   4.513   5.968 -0.6568  0.0141 -2.1008
   91SAPC  H14Y 8783   4.263   4.657   5.974 -1.3369  1.2776  0.8600
   91SAPC  C315 8784   4.103   4.671   5.827 -0.8801 -0.4911 -0.0605
   91SAPC  H15X 8785   4.065   4.775   5.839 -0.6396 -0.4141  0.0370
   91SAPC  H15Y 8786   4.007   4.616   5.818 -1.4409 -0.1484  2.7787
   91SAPC  C316 8787   4.207   4.651   5.711 -0.2156  0.8183  0.6755
   91SAPC  H16X 8788   4.292   4.720   5.731  0.2273  0.2155  0.8985
   91SAPC  H16Y 8789   4.163   4.683   5.614 -0.3969 -0.7732  0.2132
   91SAPC  C317 8790   4.239   4.503   5.693 -0.3765  0.0770 -0.2465
   91SAPC  H17X 8791   4.142   4.450   5.678 -0.7982  0.7787 -0.0525
   91SAPC  H17Y 8792   4.292   4.468   5.784 -1.0843 -0.8214 -0.1597
   91SAPC  C318 8793   4.318   4.471   5.564  0.6590  0.8616 -0.0869
   91SAPC  H18X 8794   4.255   4.496   5.475  1.1950 -0.9966 -1.0462
   91SAPC  H18Y 8795   4.346   4.364   5.576  2.5655  1.5258  1.9042
   91SAPC  H18Z 8796   4.417   4.520   5.560  1.5385 -0.7772  0.4485
   92SAPC     N 8797   3.169   0.252   7.760  0.5068 -0.2158  0.0462
   92SAPC   C12 8798   3.091   0.365   7.683  0.2261  0.7138 -0.2524
   92SAPC  H12A 8799   3.159   0.406   7.610 -0.7297  3.0032  0.0467
   92SAPC  H12B 8800   3.070   0.444   7.754  1.7435  0.8432  0.0911
   92SAPC   C13 8801   3.191   0.135   7.674 -0.9472  0.2393 -0.6445
   92SAPC  H13A 8802   3.219   0.043   7.722 -1.6448  0.0225 -0.6373
   92SAPC  H13B 8803   3.097   0.118   7.624 -0.4356 -0.1706 -1.4933
   92SAPC  H13C 8804   3.266   0.150   7.598  2.1221 -1.4073  1.8308
   92SAPC   C14 8805   3.301   0.308   7.801 -0.1373 -0.0855  0.5417
   92SAPC  H14A 8806   3.279   0.401   7.852 -1.7805 -0.6314  0.8906
   92SAPC  H14B 8807   3.364   0.250   7.867 -0.2637 -0.3711  0.4118
   92SAPC  H14C 8808   3.369   0.340   7.724  0.4319  1.2090  1.5373
   92SAPC   C15 8809   3.101   0.221   7.890  0.1776  0.5461  1.2176
   92SAPC  H15A 8810   3.136   0.125   7.923 -1.2713  0.1574  1.6872
   92SAPC  H15B 8811   3.131   0.294   7.965  0.8206  1.9506 -0.3458
   92SAPC  H15C 8812   2.994   0.223   7.878  0.4134 -0.3321 -1.5109
   92SAPC   C11 8813   2.970   0.305   7.605  0.7781 -0.0708  0.7810
   92SAPC  H11A 8814   2.999   0.233   7.525 -3.0307 -1.8794  0.7593
   92SAPC  H11B 8815   2.922   0.385   7.544 -1.1098 -1.0717  0.8512
   92SAPC     P 8816   2.739   0.318   7.739 -0.0688 -0.0003 -0.4435
   92SAPC   O13 8817   2.633   0.216   7.761  0.4036  0.1103 -0.1328
   92SAPC   O14 8818   2.768   0.422   7.842 -0.0409  0.7166 -0.2172
   92SAPC   O12 8819   2.875   0.247   7.696  0.8891  0.3991 -0.4237
   92SAPC   O11 8820   2.695   0.403   7.615 -0.1148 -0.2127  0.2291
   92SAPC    C1 8821   2.594   0.353   7.522 -0.5775 -0.6522 -0.3296
   92SAPC    HA 8822   2.562   0.248   7.542  1.7853 -1.4033 -0.2546
   92SAPC    HB 8823   2.502   0.415   7.529  0.2934  0.5724  0.6438
   92SAPC    C2 8824   2.642   0.357   7.377  0.3337 -0.1963  0.3115
   92SAPC    HS 8825   2.558   0.330   7.309 -0.9856 -0.7881  2.1155
   92SAPC   O21 8826   2.752   0.265   7.356 -0.3377 -0.2626  0.1605
   92SAPC   C21 8827   2.712   0.144   7.326  1.0237 -0.0652 -0.1508
   92SAPC   O22 8828   2.601   0.098   7.338  0.7864 -0.0344 -0.0790
   92SAPC   C22 8829   2.825   0.077   7.250 -0.0673  0.1580  0.6035
   92SAPC   H2R 8830   2.891   0.151   7.200 -0.1600 -0.3452 -0.2893
   92SAPC   H2S 8831   2.896   0.025   7.317  1.6935  1.0494 -0.4750
   92SAPC    C3 8832   2.691   0.499   7.344  0.4929 -0.8433 -0.4160
   92SAPC    HX 8833   2.778   0.521   7.409 -0.1517 -0.6270  0.4071
   92SAPC    HY 8834   2.630   0.576   7.397  1.0885 -0.3158 -0.4941
   92SAPC   O31 8835   2.709   0.529   7.206 -0.1139  0.4487  0.2519
   92SAPC   C31 8836   2.601   0.549   7.131  0.4637  0.1078 -1.2364
   92SAPC   O32 8837   2.485   0.557   7.175  0.7506 -0.5244  0.3513
   92SAPC   C32 8838   2.642   0.560   6.986 -0.3629  0.8983  0.4428
   92SAPC   H2X 8839   2.658   0.458   6.945 -0.9719  0.8778  0.2489
   92SAPC   H2Y 8840   2.734   0.623   6.982  0.4926 -0.2812  0.6925
   92SAPC   C23 8841   2.768  -0.023   7.145 -0.1463 -0.4189  0.3435
   92SAPC   H3R 8842   2.701   0.017   7.066  2.0547 -0.4998 -1.6758
   92SAPC   H3S 8843   2.696  -0.089   7.198 -2.6517  3.4342  2.2629
   92SAPC   C24 8844   2.876  -0.109   7.089  0.3241  0.0415  0.0860
   92SAPC   H4R 8845   2.822  -0.175   7.018 -3.2528  2.5858  0.1203
   92SAPC   H4S 8846   2.919  -0.173   7.169  0.6666  0.2390  0.0626
   92SAPC   C25 8847   2.980  -0.032   7.013  0.4914  1.2689  0.1369
   92SAPC   H5R 8848   3.073  -0.017   7.071  1.7147 -1.5081 -0.9294
   92SAPC   C26 8849   2.971   0.002   6.882 -0.1835  0.1648 -0.3804
   92SAPC   H6R 8850   3.060   0.056   6.846  0.2949  2.1573  3.3095
   92SAPC   C27 8851   2.866  -0.041   6.780 -0.1128 -0.3823  0.3836
   92SAPC   H7R 8852   2.776  -0.090   6.823 -0.2891 -0.7215 -0.3510
   92SAPC   H7S 8853   2.908  -0.123   6.717 -0.4174  0.2266 -0.6345
   92SAPC   C28 8854   2.809   0.086   6.712 -0.2602  0.0690 -0.3603
   92SAPC   H8R 8855   2.799   0.174   6.777  1.4551 -0.0297  0.0905
   92SAPC   C29 8856   2.762   0.092   6.586 -0.1585 -0.0053 -0.5913
   92SAPC   H9R 8857   2.735   0.193   6.553  0.7566  1.6005  3.0491
   92SAPC  C210 8858   2.757  -0.022   6.490 -0.7351 -0.4798 -0.7166
   92SAPC  H10R 8859   2.652  -0.029   6.454 -0.9990 -0.7504  0.0771
   92SAPC  H10S 8860   2.785  -0.122   6.530 -0.2643 -0.1774 -0.2809
   92SAPC  C211 8861   2.840   0.015   6.365 -0.4538 -0.1562 -0.6545
   92SAPC  H11R 8862   2.938   0.057   6.394  1.1062 -2.8041 -1.6944
   92SAPC  C212 8863   2.823  -0.029   6.235 -0.4345 -0.1809 -0.0438
   92SAPC  H12R 8864   2.895   0.018   6.166 -0.5041 -1.1823 -0.8138
   92SAPC  C213 8865   2.712  -0.113   6.172  0.1537 -0.1086  0.1195
   92SAPC  H13R 8866   2.622  -0.115   6.237 -1.4198  0.6881 -1.9142
   92SAPC  H13S 8867   2.741  -0.221   6.174  1.8691  0.3070 -0.4484
   92SAPC  C214 8868   2.673  -0.084   6.026  0.2645  0.1665 -0.3432
   92SAPC  H14R 8869   2.583  -0.021   6.019 -0.0947 -0.3953 -0.9047
   92SAPC  C215 8870   2.729  -0.131   5.918  0.1803  0.1044 -0.0479
   92SAPC  H15R 8871   2.681  -0.105   5.822 -0.3798  0.8361  0.4214
   92SAPC  C216 8872   2.852  -0.216   5.914  0.3573  0.0460 -0.7663
   92SAPC  H16R 8873   2.827  -0.323   5.897 -2.3554  0.8133 -2.0355
   92SAPC  H16S 8874   2.901  -0.231   6.013 -1.2223  0.3577  0.1081
   92SAPC  C217 8875   2.939  -0.167   5.808 -0.0464  0.1697 -0.2642
   92SAPC  H17R 8876   3.016  -0.247   5.806 -1.2962 -1.0518 -2.2009
   92SAPC  H17S 8877   2.993  -0.072   5.831  1.8192 -0.5175 -1.5503
   92SAPC  C218 8878   2.885  -0.146   5.663  1.0276  0.7974 -0.0606
   92SAPC  H18R 8879   2.792  -0.205   5.653 -0.6774  3.2471  0.2815
   92SAPC  H18S 8880   2.956  -0.196   5.594 -0.9539 -0.8288 -1.0126
   92SAPC  C219 8881   2.864  -0.008   5.619 -0.0114  0.0152  0.0404
   92SAPC  H19R 8882   2.962   0.040   5.635  1.0029 -2.4387  1.7931
   92SAPC  H19S 8883   2.789   0.045   5.681  1.2477  0.5647  1.1314
   92SAPC  C220 8884   2.818  -0.000   5.471 -0.7654  0.3291  0.0534
   92SAPC  H20R 8885   2.822   0.107   5.441  2.4216  0.4917  0.6542
   92SAPC  H20S 8886   2.722  -0.054   5.458  0.9128 -3.0562  0.6143
   92SAPC  H20T 8887   2.900  -0.048   5.413 -1.7816 -1.3159 -0.0751
   92SAPC   C33 8888   2.535   0.638   6.915 -0.3726 -0.6826 -0.2599
   92SAPC   H3X 8889   2.553   0.745   6.939  0.1247 -0.6367 -0.7942
   92SAPC   H3Y 8890   2.433   0.599   6.931 -0.1882 -1.0986 -0.1069
   92SAPC   C34 8891   2.546   0.623   6.761  1.1336 -0.9620  0.3996
   92SAPC   H4X 8892   2.493   0.713   6.724 -0.4398 -1.7415  0.6781
   92SAPC   H4Y 8893   2.500   0.529   6.724  0.5866 -0.9065  0.9224
   92SAPC   C35 8894   2.690   0.635   6.707 -0.2143 -0.5146 -0.1034
   92SAPC   H5X 8895   2.749   0.547   6.740 -1.2543 -0.8275  0.9922
   92SAPC   H5Y 8896   2.736   0.730   6.742  0.0342 -0.5592 -0.3074
   92SAPC   C36 8897   2.704   0.641   6.553 -0.0553 -0.6014 -0.6687
   92SAPC   H6X 8898   2.810   0.664   6.529 -0.8303  5.0851 -0.1043
   92SAPC   H6Y 8899   2.643   0.726   6.517  0.5238  0.4343  0.6973
   92SAPC   C37 8900   2.653   0.517   6.484 -0.7131 -0.3197  0.3988
   92SAPC   H7X 8901   2.550   0.499   6.520 -0.8018 -0.0583  0.2761
   92SAPC   H7Y 8902   2.715   0.429   6.515  0.6580  0.1025 -1.0110
   92SAPC   C38 8903   2.660   0.530   6.332  0.6289 -0.3131  0.2049
   92SAPC   H8X 8904   2.751   0.586   6.300 -0.6096  1.4297 -0.3982
   92SAPC   H8Y 8905   2.573   0.586   6.292 -0.9166 -1.8571  1.2575
   92SAPC   C39 8906   2.642   0.393   6.262  0.0715 -0.3838 -0.9549
   92SAPC   H9X 8907   2.546   0.352   6.300  0.6280 -1.1271 -0.3182
   92SAPC   H9Y 8908   2.722   0.330   6.306 -1.2698 -1.0309  0.6756
   92SAPC  C310 8909   2.640   0.413   6.109 -0.6967  0.7594  0.0755
   92SAPC  H10X 8910   2.728   0.471   6.073 -1.3244  1.4013 -0.4497
   92SAPC  H10Y 8911   2.542   0.458   6.082 -0.1756  2.5256  0.9559
   92SAPC  C311 8912   2.649   0.287   6.035 -0.2697 -0.1514 -0.9135
   92SAPC  H11X 8913   2.564   0.219   6.059  0.6519 -0.2350  2.4841
   92SAPC  H11Y 8914   2.736   0.231   6.073 -0.6072  0.0198  0.1508
   92SAPC  C312 8915   2.665   0.310   5.886  0.0171  0.9479 -0.0398
   92SAPC  H12X 8916   2.716   0.224   5.839  0.5394  3.0436 -3.7403
   92SAPC  H12Y 8917   2.730   0.398   5.866  1.1095  0.1010 -0.2988
   92SAPC  C313 8918   2.535   0.337   5.822  0.6629  0.6943 -0.1770
   92SAPC  H13X 8919   2.477   0.418   5.871 -0.1396  0.3717 -0.5850
   92SAPC  H13Y 8920   2.481   0.241   5.830 -0.6792  1.4709  0.4346
   92SAPC  C314 8921   2.539   0.385   5.678  0.5066 -0.1747 -0.2412
   92SAPC  H14X 8922   2.610   0.470   5.682  0.0104  0.2976 -1.2192
   92SAPC  H14Y 8923   2.441   0.425   5.645 -0.1129 -2.2775 -1.1310
   92SAPC  C315 8924   2.582   0.277   5.582  0.2985 -0.0188  0.6063
   92SAPC  H15X 8925   2.508   0.195   5.574 -0.5457  0.6477  1.4109
   92SAPC  H15Y 8926   2.676   0.233   5.623 -0.6301 -2.7019  0.0233
   92SAPC  C316 8927   2.584   0.339   5.448  0.6296 -0.1560  0.2046
   92SAPC  H16X 8928   2.651   0.286   5.377  0.0106  0.4257 -0.8294
   92SAPC  H16Y 8929   2.632   0.437   5.471 -0.6112  0.2369  1.2157
   92SAPC  C317 8930   2.440   0.359   5.390  0.3570 -0.2927  0.3409
   92SAPC  H17X 8931   2.365   0.373   5.471  0.2665 -1.0233  0.3923
   92SAPC  H17Y 8932   2.417   0.263   5.340 -2.7768 -0.9392  2.7130
   92SAPC  C318 8933   2.447   0.470   5.288 -0.8720 -0.2157  0.4128
   92SAPC  H18X 8934   2.465   0.574   5.322  2.0124  0.3541 -2.2678
   92SAPC  H18Y 8935   2.354   0.467   5.227  0.6294 -0.7537 -1.9941
   92SAPC  H18Z 8936   2.535   0.441   5.225  0.5542  1.4117  1.5725
   93SAPC     N 8937   4.463   2.618   7.558  0.1943  0.8514  0.2749
   93SAPC   C12 8938   4.370   2.737   7.575 -0.3540  0.1260 -0.1285
   93SAPC  H12A 8939   4.292   2.725   7.501 -0.2819 -1.2166 -0.0187
   93SAPC  H12B 8940   4.418   2.832   7.561 -0.7191  0.1538 -1.3863
   93SAPC   C13 8941   4.559   2.626   7.441  0.4051  0.0616 -0.3764
   93SAPC  H13A 8942   4.624   2.540   7.435  1.9135  1.1228  0.1290
   93SAPC  H13B 8943   4.511   2.642   7.345  0.3389  0.5358 -0.2714
   93SAPC  H13C 8944   4.635   2.701   7.460  1.2905 -0.5205 -1.5725
   93SAPC   C14 8945   4.557   2.608   7.679 -0.1444  0.3270 -0.1356
   93SAPC  H14A 8946   4.504   2.592   7.771  0.9825  0.6080  0.5885
   93SAPC  H14B 8947   4.634   2.533   7.667 -0.1973 -0.5902  3.8421
   93SAPC  H14C 8948   4.599   2.707   7.691 -0.8630  0.4979  1.2256
   93SAPC   C15 8949   4.390   2.490   7.537  0.3688 -0.5146 -0.2585
   93SAPC  H15A 8950   4.326   2.498   7.451  0.7244  0.4432 -0.4379
   93SAPC  H15B 8951   4.456   2.405   7.524 -0.7399 -1.6253  1.0132
   93SAPC  H15C 8952   4.330   2.471   7.626  0.3104  0.2238 -0.1336
   93SAPC   C11 8953   4.302   2.758   7.711  0.0590  0.1314  0.2345
   93SAPC  H11A 8954   4.288   2.659   7.760  5.0090 -0.9230  0.0511
   93SAPC  H11B 8955   4.201   2.802   7.699  0.2779  0.3695 -0.7854
   93SAPC     P 8956   4.399   2.995   7.758  0.0415  0.1250 -0.0211
   93SAPC   O13 8957   4.347   3.083   7.866 -0.0105 -0.0715 -0.0767
   93SAPC   O14 8958   4.542   3.016   7.717 -0.4041 -0.5255 -0.3880
   93SAPC   O12 8959   4.374   2.843   7.788 -0.2049  0.4718  0.0990
   93SAPC   O11 8960   4.315   3.018   7.629  0.1900  0.1680 -0.5171
   93SAPC    C1 8961   4.328   3.141   7.558 -0.7903 -0.0881 -0.1236
   93SAPC    HA 8962   4.236   3.204   7.567  1.1790  2.9210  0.5185
   93SAPC    HB 8963   4.410   3.210   7.588  0.2698 -0.7333 -1.4322
   93SAPC    C2 8964   4.343   3.122   7.399 -0.2603  0.2893 -0.6749
   93SAPC    HS 8965   4.348   3.218   7.344  1.8625 -0.4281 -1.8711
   93SAPC   O21 8966   4.219   3.053   7.353 -0.4687  0.0481  0.1375
   93SAPC   C21 8967   4.131   3.131   7.307 -0.0016  0.4996 -0.2708
   93SAPC   O22 8968   4.128   3.255   7.323 -0.8179 -0.3214 -0.4495
   93SAPC   C22 8969   4.020   3.038   7.259  0.9876  0.0172  0.0742
   93SAPC   H2R 8970   4.067   2.944   7.222  2.1434  1.1181 -1.4254
   93SAPC   H2S 8971   3.956   3.003   7.342 -2.7893 -0.0429 -2.5900
   93SAPC    C3 8972   4.479   3.049   7.366 -0.0298 -0.3659 -0.8115
   93SAPC    HX 8973   4.458   2.943   7.391 -1.6458 -0.3886 -2.1247
   93SAPC    HY 8974   4.550   3.086   7.443 -3.5628  1.3756  1.8450
   93SAPC   O31 8975   4.523   3.069   7.227  0.1958 -0.5215 -0.0835
   93SAPC   C31 8976   4.640   3.020   7.193  0.1501  0.1088  0.2843
   93SAPC   O32 8977   4.714   2.965   7.270  0.0532 -0.9203  0.2352
   93SAPC   C32 8978   4.673   3.043   7.049 -0.3593  0.0181 -0.0254
   93SAPC   H2X 8979   4.702   2.945   7.006 -1.1962 -0.5255  0.6059
   93SAPC   H2Y 8980   4.763   3.108   7.047 -1.8507  2.2524  0.9090
   93SAPC   C23 8981   3.922   3.098   7.143 -0.5483 -0.1469 -0.0559
   93SAPC   H3R 8982   3.983   3.160   7.074  1.8512 -2.1634  0.1302
   93SAPC   H3S 8983   3.845   3.164   7.189 -1.6197 -1.1349 -0.3856
   93SAPC   C24 8984   3.848   2.983   7.067  0.1195 -0.1410  0.7654
   93SAPC   H4R 8985   3.774   2.923   7.123 -0.9865  0.5813  0.1152
   93SAPC   H4S 8986   3.934   2.923   7.029  2.0495  3.4270 -1.1264
   93SAPC   C25 8987   3.773   3.036   6.948 -0.0023  0.5469 -0.2292
   93SAPC   H5R 8988   3.677   3.081   6.977 -0.6858  0.8459 -2.6949
   93SAPC   C26 8989   3.805   3.042   6.820  0.3423 -0.4355  0.0891
   93SAPC   H6R 8990   3.745   3.094   6.744  2.6921  0.6050 -1.1976
   93SAPC   C27 8991   3.938   3.004   6.759  0.0699  0.4210  0.1360
   93SAPC   H7R 8992   4.015   2.988   6.837  0.4686  1.1499 -0.1010
   93SAPC   H7S 8993   3.982   3.081   6.692  0.5176 -0.4179 -0.5588
   93SAPC   C28 8994   3.925   2.880   6.668 -0.5608 -0.0155  0.4797
   93SAPC   H8R 8995   3.921   2.786   6.724 -0.5030  0.5955  1.5475
   93SAPC   C29 8996   3.925   2.872   6.532 -0.2938 -0.1921  0.5871
   93SAPC   H9R 8997   3.936   2.767   6.498  0.1265  0.0791 -0.1546
   93SAPC  C210 8998   3.947   2.986   6.434 -0.4996  0.7374  0.2946
   93SAPC  H10R 8999   4.041   3.039   6.462  0.5972 -0.4616 -0.9553
   93SAPC  H10S 9000   3.869   3.062   6.455  0.3240  1.8906 -0.7203
   93SAPC  C211 9001   3.944   2.946   6.289  0.5222 -0.5527  0.2039
   93SAPC  H11R 9002   3.855   2.986   6.238 -0.8589  2.2983  4.2510
   93SAPC  C212 9003   4.043   2.898   6.220 -0.1292  0.0886 -0.1000
   93SAPC  H12R 9004   4.023   2.853   6.121 -1.1759  1.5167 -0.5839
   93SAPC  C213 9005   4.174   2.846   6.267 -0.2314 -1.0105 -0.2461
   93SAPC  H13R 9006   4.182   2.748   6.215 -0.0962 -0.8102 -0.6013
   93SAPC  H13S 9007   4.167   2.830   6.377 -1.8601  1.1993  0.0469
   93SAPC  C214 9008   4.288   2.947   6.254 -0.1389 -0.0122  0.1546
   93SAPC  H14R 9009   4.262   3.040   6.307  1.3098 -0.0268  0.9268
   93SAPC  C215 9010   4.384   2.952   6.159 -0.1924 -0.3418 -0.3018
   93SAPC  H15R 9011   4.457   3.034   6.160  1.4440 -1.7379 -0.8626
   93SAPC  C216 9012   4.416   2.843   6.066 -0.3443 -0.1054 -0.1232
   93SAPC  H16R 9013   4.352   2.753   6.076 -0.2607 -0.6092 -3.0501
   93SAPC  H16S 9014   4.516   2.797   6.068  0.6581  1.8509 -1.5319
   93SAPC  C217 9015   4.389   2.889   5.912 -0.4109  0.6996 -0.0418
   93SAPC  H17R 9016   4.473   2.959   5.891 -0.5170  0.6859 -0.5286
   93SAPC  H17S 9017   4.296   2.949   5.912  0.2992  1.8208  0.4101
   93SAPC  C218 9018   4.407   2.782   5.808  0.4589 -0.5906 -0.3304
   93SAPC  H18R 9019   4.391   2.825   5.708 -0.2643  0.0101  0.0396
   93SAPC  H18S 9020   4.335   2.700   5.828 -0.1876  0.2206  0.7630
   93SAPC  C219 9021   4.543   2.705   5.803 -0.0308 -0.1994 -0.3849
   93SAPC  H19R 9022   4.569   2.663   5.902 -0.9327 -1.4514 -0.6617
   93SAPC  H19S 9023   4.617   2.781   5.769  0.3816 -0.5905 -0.3729
   93SAPC  C220 9024   4.539   2.593   5.693  0.3960  0.5352 -0.4766
   93SAPC  H20R 9025   4.489   2.634   5.602  0.5653  0.5309 -0.5723
   93SAPC  H20S 9026   4.481   2.511   5.739 -0.6328  1.4985  0.0014
   93SAPC  H20T 9027   4.640   2.553   5.672 -1.4276 -3.9506 -1.8974
   93SAPC   C33 9028   4.548   3.101   6.975  0.5087 -0.3323 -0.0125
   93SAPC   H3X 9029   4.523   3.196   7.028  1.1252 -0.3083  0.2434
   93SAPC   H3Y 9030   4.460   3.035   6.988  0.5813 -0.2542  0.9591
   93SAPC   C34 9031   4.563   3.111   6.821 -0.4289 -0.2023 -0.0886
   93SAPC   H4X 9032   4.589   3.016   6.770 -2.6182  1.2164 -4.2932
   93SAPC   H4Y 9033   4.645   3.184   6.802 -1.2113  1.5410  2.5823
   93SAPC   C35 9034   4.440   3.149   6.738 -0.3342 -0.2488  0.3697
   93SAPC   H5X 9035   4.402   3.244   6.781 -1.1862 -1.0896  1.5404
   93SAPC   H5Y 9036   4.355   3.081   6.758 -1.1329  1.0372  1.5172
   93SAPC   C36 9037   4.479   3.164   6.592 -1.2159 -0.3889  0.2865
   93SAPC   H6X 9038   4.501   3.064   6.548  0.0749  0.1180 -0.2503
   93SAPC   H6Y 9039   4.578   3.215   6.594 -0.9434 -0.8785 -0.3213
   93SAPC   C37 9040   4.371   3.245   6.516  0.3071  0.1778 -0.7864
   93SAPC   H7X 9041   4.331   3.324   6.583  1.5814  0.3500 -0.2172
   93SAPC   H7Y 9042   4.279   3.187   6.491 -0.6251  0.8649  0.8345
   93SAPC   C38 9043   4.427   3.313   6.394  0.2701  0.0945 -0.5001
   93SAPC   H8X 9044   4.440   3.228   6.324 -0.3334  0.3917 -0.9817
   93SAPC   H8Y 9045   4.522   3.369   6.412 -0.0867  0.9705 -1.2555
   93SAPC   C39 9046   4.334   3.395   6.309  0.0615  0.4744 -0.3845
   93SAPC   H9X 9047   4.272   3.456   6.378 -0.5198 -2.4098  1.7922
   93SAPC   H9Y 9048   4.266   3.330   6.250 -1.5727 -0.3838  2.2894
   93SAPC  C310 9049   4.409   3.493   6.211  0.4505  0.0701 -0.3957
   93SAPC  H10X 9050   4.490   3.549   6.262 -0.2407  2.4141 -1.6851
   93SAPC  H10Y 9051   4.345   3.564   6.154  0.7155 -1.2382 -2.4099
   93SAPC  C311 9052   4.468   3.409   6.095 -0.0912 -0.0123  0.3184
   93SAPC  H11X 9053   4.379   3.355   6.054  1.0237 -1.4835 -0.2368
   93SAPC  H11Y 9054   4.532   3.329   6.137  0.6703 -0.1970 -1.1424
   93SAPC  C312 9055   4.547   3.487   5.991 -0.3398  0.0201  0.0787
   93SAPC  H12X 9056   4.566   3.411   5.911 -2.5295  0.9037 -1.3517
   93SAPC  H12Y 9057   4.645   3.524   6.029  0.1137 -2.0324  1.0658
   93SAPC  C313 9058   4.478   3.605   5.921  0.2495 -1.0897  0.2137
   93SAPC  H13X 9059   4.499   3.692   5.987  1.3885 -1.8115  0.8377
   93SAPC  H13Y 9060   4.367   3.594   5.927  0.2299 -0.3743  1.8864
   93SAPC  C314 9061   4.518   3.633   5.775  0.7089  0.0340  0.8466
   93SAPC  H14X 9062   4.494   3.543   5.714  0.9313 -0.5847  1.6470
   93SAPC  H14Y 9063   4.619   3.676   5.761  0.2051  1.4901  1.5097
   93SAPC  C315 9064   4.434   3.747   5.718 -1.2259  0.4259 -0.2068
   93SAPC  H15X 9065   4.482   3.848   5.723 -1.1379  0.3368  1.0980
   93SAPC  H15Y 9066   4.338   3.744   5.773 -2.0161 -2.0698 -1.5771
   93SAPC  C316 9067   4.392   3.709   5.576 -0.4051 -0.3734  0.1257
   93SAPC  H16X 9068   4.355   3.605   5.575 -2.3982  0.2334  2.0472
   93SAPC  H16Y 9069   4.476   3.706   5.503 -1.3755  0.3956 -1.0557
   93SAPC  C317 9070   4.283   3.791   5.512  0.3002  0.5734  0.1720
   93SAPC  H17X 9071   4.309   3.896   5.489  1.8847 -0.0378 -0.9709
   93SAPC  H17Y 9072   4.197   3.780   5.581  0.9895  0.2585  1.0073
   93SAPC  C318 9073   4.239   3.730   5.380  0.3843  0.2662 -0.0122
   93SAPC  H18X 9074   4.161   3.798   5.341 -1.6183 -0.2507  2.7373
   93SAPC  H18Y 9075   4.199   3.628   5.398  1.3488  0.0516  1.0537
   93SAPC  H18Z 9076   4.319   3.719   5.304 -0.4604 -2.1884 -0.6535
   94SAPC     N 9077   5.802   5.361   7.348  0.1642 -0.1846  0.9725
   94SAPC   C12 9078   5.721   5.451   7.260  0.2075  0.1425 -0.2011
   94SAPC  H12A 9079   5.668   5.412   7.175  0.0470 -0.2281  0.0689
   94SAPC  H12B 9080   5.785   5.533   7.232 -0.8039  1.5050  1.3314
   94SAPC   C13 9081   5.916   5.303   7.265  0.3048 -0.4258  0.0327
   94SAPC  H13A 9082   5.994   5.268   7.330  0.7297  0.7128  0.1609
   94SAPC  H13B 9083   5.883   5.229   7.195  1.2108 -1.9143  1.1294
   94SAPC  H13C 9084   5.958   5.381   7.204  0.6273 -0.0764  0.6833
   94SAPC   C14 9085   5.875   5.443   7.451  0.0500 -0.0948 -0.2387
   94SAPC  H14A 9086   5.919   5.529   7.403  0.8759 -1.3412 -1.7789
   94SAPC  H14B 9087   5.810   5.468   7.533  0.6914  0.3459  0.1521
   94SAPC  H14C 9088   5.952   5.380   7.494 -1.1564 -1.8603 -0.5731
   94SAPC   C15 9089   5.731   5.249   7.410  0.7145 -0.0698 -0.0002
   94SAPC  H15A 9090   5.714   5.175   7.333  1.4712 -1.5632  1.2165
   94SAPC  H15B 9091   5.794   5.205   7.485  0.3500  2.1613  1.7016
   94SAPC  H15C 9092   5.637   5.278   7.455  1.0466  0.7419  0.1785
   94SAPC   C11 9093   5.610   5.527   7.334 -0.6887  0.2443  0.1472
   94SAPC  H11A 9094   5.574   5.607   7.266  2.2889  1.0936 -0.5498
   94SAPC  H11B 9095   5.654   5.572   7.425 -0.0877 -0.7425  0.3667
   94SAPC     P 9096   5.425   5.452   7.509  0.7490 -0.3717  0.4181
   94SAPC   O13 9097   5.343   5.327   7.519  0.0186 -0.1259 -0.3513
   94SAPC   O14 9098   5.516   5.480   7.620 -0.0649 -0.1022  0.3140
   94SAPC   O12 9099   5.507   5.438   7.374  0.1858 -0.1606  0.1711
   94SAPC   O11 9100   5.336   5.583   7.485 -0.3649  0.0965  0.1536
   94SAPC    C1 9101   5.217   5.574   7.402  0.1976 -1.3798 -0.1258
   94SAPC    HA 9102   5.210   5.469   7.366  0.8591 -1.5358  0.1794
   94SAPC    HB 9103   5.131   5.610   7.462  0.3044  0.6966 -1.1140
   94SAPC    C2 9104   5.228   5.682   7.285  0.2358 -0.1411 -0.0748
   94SAPC    HS 9105   5.331   5.668   7.244  0.7352  1.1020  0.6829
   94SAPC   O21 9106   5.202   5.807   7.352  0.0208 -0.2691 -0.2784
   94SAPC   C21 9107   5.308   5.872   7.390  0.2112  0.1055 -1.0789
   94SAPC   O22 9108   5.422   5.830   7.387  0.2108 -0.5590 -0.2239
   94SAPC   C22 9109   5.270   6.020   7.442 -0.0123  0.4069 -0.4023
   94SAPC   H2R 9110   5.166   6.029   7.479  0.3075 -1.5447  1.0879
   94SAPC   H2S 9111   5.333   6.039   7.532 -0.6752  0.7588 -0.0040
   94SAPC    C3 9112   5.118   5.649   7.183  0.2895  0.1018  0.0984
   94SAPC    HX 9113   5.122   5.714   7.093  0.6947  0.9165  0.6960
   94SAPC    HY 9114   5.026   5.670   7.242 -1.2276 -0.3098 -2.0121
   94SAPC   O31 9115   5.117   5.513   7.136 -0.0439  0.5040  0.3782
   94SAPC   C31 9116   5.209   5.495   7.039  0.1364 -0.2395  0.4301
   94SAPC   O32 9117   5.279   5.580   6.990 -0.1451 -0.0565  0.3887
   94SAPC   C32 9118   5.212   5.354   6.981  0.4994  0.1326 -0.0258
   94SAPC   H2X 9119   5.156   5.286   7.047  0.4027 -0.3816 -0.6257
   94SAPC   H2Y 9120   5.318   5.323   6.993  0.5560 -0.0922 -0.9798
   94SAPC   C23 9121   5.298   6.123   7.326 -0.0507 -0.4583 -0.1642
   94SAPC   H3R 9122   5.393   6.099   7.273 -0.3101 -0.4242 -0.6458
   94SAPC   H3S 9123   5.317   6.219   7.379 -0.9879 -0.7961  0.8222
   94SAPC   C24 9124   5.187   6.142   7.220 -0.1914 -0.2603 -0.4329
   94SAPC   H4R 9125   5.191   6.243   7.174 -1.5095 -0.9297 -2.1393
   94SAPC   H4S 9126   5.099   6.154   7.288 -2.1249  0.5606 -2.9288
   94SAPC   C25 9127   5.150   6.028   7.124  0.0767  0.6619 -0.3988
   94SAPC   H5R 9128   5.102   5.938   7.163  1.3601  0.1119 -0.0332
   94SAPC   C26 9129   5.178   6.028   6.997  0.4113  0.3566 -0.1297
   94SAPC   H6R 9130   5.149   5.937   6.943  2.5829 -0.0822 -0.6393
   94SAPC   C27 9131   5.242   6.124   6.898  0.8036 -0.0576 -0.1656
   94SAPC   H7R 9132   5.235   6.068   6.802  1.6130 -0.6188  0.0884
   94SAPC   H7S 9133   5.351   6.121   6.916  1.1370 -1.0422 -2.1179
   94SAPC   C28 9134   5.183   6.263   6.882  0.6694 -0.4300  0.3069
   94SAPC   H8R 9135   5.166   6.314   6.978 -0.0215 -0.7883  0.3773
   94SAPC   C29 9136   5.169   6.331   6.772 -0.4058 -0.3534 -0.2900
   94SAPC   H9R 9137   5.123   6.431   6.775  0.3991  0.0444 -0.7585
   94SAPC  C210 9138   5.199   6.278   6.636 -0.1003  0.1313  0.5949
   94SAPC  H10R 9139   5.114   6.216   6.601  1.3756 -3.5027  2.8971
   94SAPC  H10S 9140   5.284   6.207   6.637  1.5938  2.0192 -0.9614
   94SAPC  C211 9141   5.228   6.390   6.536 -0.2001  0.3013  0.4793
   94SAPC  H11R 9142   5.255   6.485   6.584  0.9126  0.4347 -0.3754
   94SAPC  C212 9143   5.210   6.389   6.404  0.7033 -0.7686 -0.1945
   94SAPC  H12R 9144   5.258   6.467   6.342  0.0541 -0.3053 -0.1233
   94SAPC  C213 9145   5.145   6.287   6.320 -0.3265 -0.0866 -0.2015
   94SAPC  H13R 9146   5.152   6.189   6.373 -0.9525  0.3235  0.6626
   94SAPC  H13S 9147   5.214   6.271   6.234  0.9155  0.1581  0.7251
   94SAPC  C214 9148   5.006   6.319   6.266  0.1570  0.0569 -0.3013
   94SAPC  H14R 9149   4.967   6.420   6.278 -2.5048 -0.5969 -2.3683
   94SAPC  C215 9150   4.936   6.242   6.184 -0.6548  0.0552 -0.2087
   94SAPC  H15R 9151   4.856   6.299   6.134  0.7622  2.9164  0.5942
   94SAPC  C216 9152   4.956   6.107   6.126 -0.4947  0.3305  0.0826
   94SAPC  H16R 9153   4.892   6.035   6.183  0.5333  0.2364  1.1622
   94SAPC  H16S 9154   5.063   6.080   6.140  0.0514  1.8434 -0.9771
   94SAPC  C217 9155   4.928   6.091   5.968 -0.0879  0.7215 -0.0615
   94SAPC  H17R 9156   4.995   6.154   5.905 -0.7211  0.5487 -0.9316
   94SAPC  H17S 9157   4.831   6.128   5.929  0.5075  1.9715 -0.4294
   94SAPC  C218 9158   4.954   5.944   5.930  0.0109 -0.0821 -0.0367
   94SAPC  H18R 9159   4.853   5.898   5.939 -0.3528  0.8802  1.0549
   94SAPC  H18S 9160   5.026   5.893   5.998  1.2670  0.4153 -0.9457
   94SAPC  C219 9161   5.003   5.929   5.787  0.6034  0.1019  0.0788
   94SAPC  H19R 9162   5.012   5.823   5.756  1.1954  0.7254 -2.0843
   94SAPC  H19S 9163   5.105   5.972   5.776  1.4572 -1.9280 -0.3373
   94SAPC  C220 9164   4.911   6.001   5.683 -0.4920  0.0065  0.1238
   94SAPC  H20R 9165   4.922   5.977   5.575  1.4800 -0.4696  0.3932
   94SAPC  H20S 9166   4.927   6.111   5.686 -0.5953 -0.0008  1.1222
   94SAPC  H20T 9167   4.807   5.979   5.712 -1.0215  0.8405 -1.0541
   94SAPC   C33 9168   5.171   5.332   6.835  0.5228  0.1531  0.3153
   94SAPC   H3X 9169   5.065   5.364   6.823  0.6657  0.5047 -0.0082
   94SAPC   H3Y 9170   5.166   5.224   6.810 -0.4897 -0.1222  1.5958
   94SAPC   C34 9171   5.256   5.392   6.725  0.1425 -0.1446  0.5221
   94SAPC   H4X 9172   5.364   5.371   6.738  0.0335 -1.5430 -0.6953
   94SAPC   H4Y 9173   5.247   5.503   6.736 -1.2739 -0.1010 -0.7094
   94SAPC   C35 9174   5.215   5.348   6.585  0.0670 -0.6946 -0.0341
   94SAPC   H5X 9175   5.107   5.370   6.568 -0.1474 -1.0600  0.8212
   94SAPC   H5Y 9176   5.239   5.240   6.576 -0.0903 -0.8873  1.6353
   94SAPC   C36 9177   5.291   5.421   6.472 -0.1948 -0.5327  0.1094
   94SAPC   H6X 9178   5.400   5.400   6.473 -0.5019 -2.3627  0.7896
   94SAPC   H6Y 9179   5.284   5.531   6.480 -1.2493 -0.4944 -0.9910
   94SAPC   C37 9180   5.255   5.379   6.326 -0.5977 -0.0323 -0.7834
   94SAPC   H7X 9181   5.271   5.269   6.316  1.4140 -0.0325  1.5612
   94SAPC   H7Y 9182   5.324   5.436   6.261 -1.1965 -0.1112 -1.5082
   94SAPC   C38 9183   5.115   5.411   6.286  1.5378  0.6227 -0.5643
   94SAPC   H8X 9184   5.088   5.512   6.323  3.2886  0.3931  1.5664
   94SAPC   H8Y 9185   5.048   5.347   6.347  1.6801  1.4994  0.5474
   94SAPC   C39 9186   5.094   5.405   6.138  1.3635  0.1716 -0.1849
   94SAPC   H9X 9187   5.055   5.305   6.110 -1.5144  1.3864 -0.9073
   94SAPC   H9Y 9188   5.185   5.438   6.085 -0.0788  2.4419 -1.4505
   94SAPC  C310 9189   4.985   5.498   6.101  0.1042 -0.8309 -0.3801
   94SAPC  H10X 9190   5.013   5.605   6.111 -1.5579 -0.2517 -1.4220
   94SAPC  H10Y 9191   4.895   5.484   6.165 -0.4513  1.4560 -0.5693
   94SAPC  C311 9192   4.951   5.496   5.946 -0.2237 -0.3940 -0.6221
   94SAPC  H11X 9193   4.959   5.388   5.921 -0.1090 -0.2189 -1.3366
   94SAPC  H11Y 9194   5.036   5.548   5.897  0.6109 -1.3146 -0.1818
   94SAPC  C312 9195   4.824   5.563   5.895  0.6036  0.2372  0.2926
   94SAPC  H12X 9196   4.841   5.667   5.930  0.2321 -0.4318  2.6732
   94SAPC  H12Y 9197   4.730   5.536   5.947 -0.9600  1.2001 -1.8814
   94SAPC  C313 9198   4.800   5.552   5.744 -0.4552 -0.1890  0.6179
   94SAPC  H13X 9199   4.889   5.584   5.687  2.1849 -4.4141  1.9150
   94SAPC  H13Y 9200   4.716   5.618   5.711  0.3391  1.1605  1.2291
   94SAPC  C314 9201   4.757   5.418   5.694 -0.0444  0.7257 -0.9487
   94SAPC  H14X 9202   4.679   5.372   5.757 -0.1249  1.0212 -0.8333
   94SAPC  H14Y 9203   4.848   5.354   5.689 -1.5892 -1.8708  1.5657
   94SAPC  C315 9204   4.698   5.411   5.559  0.3069  0.5653  0.0389
   94SAPC  H15X 9205   4.613   5.481   5.544 -1.4953 -1.7677 -1.2583
   94SAPC  H15Y 9206   4.650   5.311   5.560  0.5610  0.2953 -3.2085
   94SAPC  C316 9207   4.810   5.415   5.443  0.6160 -0.1442  0.5378
   94SAPC  H16X 9208   4.891   5.349   5.480  0.0125 -0.0215  2.1814
   94SAPC  H16Y 9209   4.851   5.516   5.424  1.5703  0.0430  3.1308
   94SAPC  C317 9210   4.756   5.352   5.318  0.3930 -0.1219 -0.0715
   94SAPC  H17X 9211   4.665   5.398   5.274 -0.5506 -0.5372  1.3732
   94SAPC  H17Y 9212   4.722   5.251   5.349  0.5414 -0.0268  0.4044
   94SAPC  C318 9213   4.863   5.331   5.205  0.6403  0.2855 -0.7812
   94SAPC  H18X 9214   4.828   5.244   5.146 -1.1751 -0.4541  1.2573
   94SAPC  H18Y 9215   4.954   5.308   5.264  0.3499  3.3432  1.1051
   94SAPC  H18Z 9216   4.871   5.423   5.143 -1.5311  0.0329 -1.5439
   95SAPC     N 9217   5.142   4.430   3.332  0.3061 -0.0025 -0.0973
   95SAPC   C12 9218   5.250   4.533   3.280 -0.6223  0.4798  0.1625
   95SAPC  H12A 9219   5.308   4.571   3.362  0.2362  0.0794 -0.2411
   95SAPC  H12B 9220   5.192   4.617   3.244 -2.9126 -0.4596  1.4655
   95SAPC   C13 9221   5.046   4.382   3.222 -0.1237 -0.0621 -0.0220
   95SAPC  H13A 9222   4.962   4.325   3.260  0.7341 -1.0704  0.3910
   95SAPC  H13B 9223   5.009   4.468   3.168 -1.1471 -0.4573  0.0251
   95SAPC  H13C 9224   5.093   4.328   3.142 -1.1537  1.0833 -1.4767
   95SAPC   C14 9225   5.206   4.314   3.402 -0.2100  0.7852  1.0504
   95SAPC  H14A 9226   5.128   4.244   3.428  0.0622  0.6178  1.4198
   95SAPC  H14B 9227   5.271   4.270   3.328 -1.6636  0.9453 -0.3980
   95SAPC  H14C 9228   5.264   4.331   3.491 -0.9813  0.3426  1.6558
   95SAPC   C15 9229   5.061   4.504   3.436 -0.1381  0.8061  0.3878
   95SAPC  H15A 9230   4.997   4.579   3.392 -2.3125 -0.6260  0.8804
   95SAPC  H15B 9231   4.996   4.437   3.490 -0.3083  1.4225  0.9539
   95SAPC  H15C 9232   5.127   4.545   3.510 -0.1236 -2.5415  2.4605
   95SAPC   C11 9233   5.358   4.490   3.180  0.3432  1.0873 -0.0158
   95SAPC  H11A 9234   5.441   4.437   3.232 -0.7970  0.9788  1.7772
   95SAPC  H11B 9235   5.413   4.579   3.144  0.1058  1.4302  0.4535
   95SAPC     P 9236   5.344   4.260   3.044 -0.4280 -0.0451 -0.2097
   95SAPC   O13 9237   5.219   4.204   3.008 -0.3183  0.1364 -0.0425
   95SAPC   O14 9238   5.456   4.237   2.949 -0.0375  0.1414  0.5837
   95SAPC   O12 9239   5.313   4.414   3.067  0.2711  0.2410 -0.1953
   95SAPC   O11 9240   5.383   4.210   3.187 -0.1326  0.3633 -0.5016
   95SAPC    C1 9241   5.493   4.119   3.200 -0.4868  1.0566 -0.0846
   95SAPC    HA 9242   5.466   4.016   3.167  0.7150  1.1348 -1.3973
   95SAPC    HB 9243   5.581   4.151   3.141 -0.4218  1.8750  0.4307
   95SAPC    C2 9244   5.535   4.107   3.343 -0.0148 -0.2021  0.4007
   95SAPC    HS 9245   5.448   4.087   3.410  0.1233  0.0602  0.6590
   95SAPC   O21 9246   5.608   4.232   3.369 -0.4349  0.1918  0.2976
   95SAPC   C21 9247   5.598   4.273   3.502  0.2842  0.5825  0.0312
   95SAPC   O22 9248   5.528   4.217   3.584 -0.2086 -0.3738 -0.0446
   95SAPC   C22 9249   5.689   4.397   3.513 -0.4225 -0.2242  0.8668
   95SAPC   H2R 9250   5.721   4.432   3.413  0.4710 -0.1767  1.1620
   95SAPC   H2S 9251   5.631   4.474   3.569  0.1420  0.0811  1.0389
   95SAPC    C3 9252   5.640   3.991   3.368  1.0824  1.4296 -0.2707
   95SAPC    HX 9253   5.728   4.001   3.301  1.2513 -1.4612 -0.5966
   95SAPC    HY 9254   5.597   3.890   3.350  2.9212  0.3145  1.1303
   95SAPC   O31 9255   5.686   3.983   3.505 -0.4074  0.7805  0.2334
   95SAPC   C31 9256   5.630   3.909   3.599 -0.1125  0.3524 -0.2225
   95SAPC   O32 9257   5.544   3.822   3.587  0.1989 -0.4472  0.8029
   95SAPC   C32 9258   5.702   3.937   3.731  0.6035  0.1657  0.6181
   95SAPC   H2X 9259   5.704   4.047   3.744  1.5170  0.0880  1.1986
   95SAPC   H2Y 9260   5.804   3.899   3.705 -0.6909 -2.0644 -1.6904
   95SAPC   C23 9261   5.830   4.369   3.584 -0.0048  0.6027 -1.0245
   95SAPC   H3R 9262   5.808   4.308   3.674 -0.7695 -0.3342 -1.8268
   95SAPC   H3S 9263   5.860   4.467   3.626 -0.3456  0.0030  0.6889
   95SAPC   C24 9264   5.944   4.323   3.494  0.0708 -0.1872  0.9363
   95SAPC   H4R 9265   6.039   4.358   3.540  1.6353 -1.0063 -1.4361
   95SAPC   H4S 9266   5.945   4.373   3.395 -0.5732  0.0292  1.0397
   95SAPC   C25 9267   5.959   4.178   3.474  0.7209  0.3794 -1.0920
   95SAPC   H5R 9268   5.869   4.133   3.432  1.3557 -1.2176 -0.8066
   95SAPC   C26 9269   6.061   4.099   3.525 -0.3765 -0.1195 -0.0218
   95SAPC   H6R 9270   6.039   3.991   3.529 -1.1068  0.0449  0.5384
   95SAPC   C27 9271   6.171   4.129   3.612 -0.6384 -0.7009  0.6522
   95SAPC   H7R 9272   6.207   4.036   3.661  0.5651 -1.3662 -1.4250
   95SAPC   H7S 9273   6.128   4.186   3.698 -2.8217 -0.9318 -0.2202
   95SAPC   C28 9274   6.282   4.201   3.542 -0.9897  0.2925  0.1777
   95SAPC   H8R 9275   6.291   4.189   3.433 -0.6123 -1.1694  0.3460
   95SAPC   C29 9276   6.358   4.296   3.599 -0.3161 -0.0046 -0.7959
   95SAPC   H9R 9277   6.420   4.355   3.530 -0.7121 -0.4895 -1.5786
   95SAPC  C210 9278   6.375   4.338   3.745  0.2209 -0.9172  0.0632
   95SAPC  H10R 9279   6.483   4.351   3.767  0.6627 -1.9473 -1.3543
   95SAPC  H10S 9280   6.339   4.260   3.816  2.3020 -2.6707 -0.7150
   95SAPC  C211 9281   6.298   4.472   3.758 -0.2730  0.3221 -0.1931
   95SAPC  H11R 9282   6.324   4.551   3.686 -1.6094 -0.2730 -1.3826
   95SAPC  C212 9283   6.204   4.495   3.854 -0.4846  1.0055  0.4085
   95SAPC  H12R 9284   6.148   4.589   3.848 -4.0172 -0.9965 -0.9997
   95SAPC  C213 9285   6.138   4.390   3.949 -0.1041 -0.5561 -0.2267
   95SAPC  H13R 9286   6.146   4.426   4.053 -0.5933 -0.5934 -0.1735
   95SAPC  H13S 9287   6.196   4.295   3.946  1.5930  0.3829  1.3314
   95SAPC  C214 9288   6.007   4.338   3.909  0.1205 -0.2970 -0.3965
   95SAPC  H14R 9289   5.997   4.250   3.843 -2.3725  0.5191 -1.2037
   95SAPC  C215 9290   5.900   4.385   3.972 -0.5380  0.5827  0.1904
   95SAPC  H15R 9291   5.802   4.342   3.945 -0.8858  0.8184  1.0331
   95SAPC  C216 9292   5.892   4.490   4.084  0.1691 -0.6983 -0.1303
   95SAPC  H16R 9293   5.823   4.571   4.051  1.3236  0.0482 -0.7807
   95SAPC  H16S 9294   5.992   4.531   4.109  0.3482 -1.8236  1.1103
   95SAPC  C217 9295   5.835   4.418   4.208  0.3892  0.2598  0.9872
   95SAPC  H17R 9296   5.912   4.346   4.244 -0.4104 -0.9855  0.2870
   95SAPC  H17S 9297   5.735   4.370   4.200 -0.3292  1.8022  0.4096
   95SAPC  C218 9298   5.809   4.525   4.321  0.0754 -0.7169 -0.3490
   95SAPC  H18R 9299   5.737   4.592   4.269 -0.2569 -2.2000 -1.9415
   95SAPC  H18S 9300   5.905   4.579   4.325  0.4431 -0.8973 -3.7159
   95SAPC  C219 9301   5.755   4.462   4.449 -0.2575 -0.2333  0.6634
   95SAPC  H19R 9302   5.813   4.368   4.461 -0.3256 -0.4085 -0.2920
   95SAPC  H19S 9303   5.649   4.432   4.439  0.2501 -2.0757  0.4453
   95SAPC  C220 9304   5.802   4.535   4.579 -0.0487 -0.1270 -0.1770
   95SAPC  H20R 9305   5.784   4.644   4.574  0.9391 -0.0075 -2.0499
   95SAPC  H20S 9306   5.909   4.515   4.601 -0.9600 -3.1092  2.1987
   95SAPC  H20T 9307   5.750   4.488   4.666 -0.5979  0.6469 -0.0792
   95SAPC   C33 9308   5.648   3.853   3.847  0.1321 -0.8159  0.1059
   95SAPC   H3X 9309   5.689   3.750   3.855  1.4680 -0.2817  0.2820
   95SAPC   H3Y 9310   5.537   3.851   3.837 -0.0169 -0.3762  1.3886
   95SAPC   C34 9311   5.668   3.936   3.984  0.4025  0.3839  1.0661
   95SAPC   H4X 9312   5.620   3.868   4.058 -0.6341 -0.3703 -0.2668
   95SAPC   H4Y 9313   5.598   4.021   3.999  0.3645 -0.0402  3.8284
   95SAPC   C35 9314   5.808   3.957   4.015  0.2528  0.0663  0.3754
   95SAPC   H5X 9315   5.864   4.001   3.930  1.6548  1.9387  2.1868
   95SAPC   H5Y 9316   5.855   3.857   4.025  0.3447 -0.2395 -2.3064
   95SAPC   C36 9317   5.836   4.043   4.141 -0.0021  0.0771 -0.6345
   95SAPC   H6X 9318   5.763   4.126   4.143 -1.3141 -1.0110  2.1277
   95SAPC   H6Y 9319   5.942   4.075   4.147  0.0926  0.5316 -3.5309
   95SAPC   C37 9320   5.812   3.971   4.277  1.1301  0.0353 -0.1536
   95SAPC   H7X 9321   5.872   3.878   4.276 -0.2469 -0.8877 -1.7979
   95SAPC   H7Y 9322   5.705   3.941   4.286  1.4856 -1.0963  0.4922
   95SAPC   C38 9323   5.858   4.044   4.405  0.1298 -0.4754 -0.3078
   95SAPC   H8X 9324   5.777   4.119   4.418 -0.8235 -1.6023  0.5019
   95SAPC   H8Y 9325   5.956   4.093   4.392  0.5119 -1.3025 -0.6248
   95SAPC   C39 9326   5.861   3.948   4.530  0.3801 -0.3890  0.0026
   95SAPC   H9X 9327   5.943   3.874   4.523  0.4487 -0.4569  1.2638
   95SAPC   H9Y 9328   5.763   3.897   4.540  0.4426 -0.0479  4.2862
   95SAPC  C310 9329   5.869   4.027   4.653  0.7290 -0.2067 -0.3269
   95SAPC  H10X 9330   5.797   4.111   4.639 -0.8406 -1.4544  0.0139
   95SAPC  H10Y 9331   5.975   4.059   4.658  0.7566 -0.3527  0.0168
   95SAPC  C311 9332   5.811   3.960   4.778 -0.3497  0.4581 -0.2438
   95SAPC  H11X 9333   5.873   3.872   4.806  1.6512  1.6498 -0.7008
   95SAPC  H11Y 9334   5.706   3.925   4.767  0.1082 -1.4059  0.8169
   95SAPC  C312 9335   5.819   4.066   4.890 -0.6595 -0.4041  0.2896
   95SAPC  H12X 9336   5.916   4.117   4.874 -0.5970 -0.9524 -1.3499
   95SAPC  H12Y 9337   5.836   4.009   4.984  1.0127  1.6236  1.2813
   95SAPC  C313 9338   5.697   4.155   4.904  0.4010 -0.4436  0.3344
   95SAPC  H13X 9339   5.603   4.119   4.950 -1.2751  1.4221 -1.4242
   95SAPC  H13Y 9340   5.675   4.170   4.796 -2.4722 -0.4119  0.8522
   95SAPC  C314 9341   5.734   4.292   4.955 -0.5425 -0.5834  0.1681
   95SAPC  H14X 9342   5.821   4.333   4.899 -2.0078  1.0296 -1.0541
   95SAPC  H14Y 9343   5.752   4.288   5.064 -2.0412 -2.2467  0.4041
   95SAPC  C315 9344   5.618   4.391   4.953 -0.5283  0.2857  0.2487
   95SAPC  H15X 9345   5.551   4.369   5.038 -2.2290  1.3462 -0.7688
   95SAPC  H15Y 9346   5.565   4.402   4.856  2.6509  0.5262 -1.5943
   95SAPC  C316 9347   5.664   4.533   4.975  0.3659  0.3005  0.7105
   95SAPC  H16X 9348   5.716   4.565   4.883 -0.3482 -1.4468 -0.3372
   95SAPC  H16Y 9349   5.735   4.519   5.059 -0.6207  0.8952  1.6821
   95SAPC  C317 9350   5.545   4.631   5.007 -0.1264  0.4770 -0.3472
   95SAPC  H17X 9351   5.485   4.630   4.914  0.7221 -3.7486 -1.0396
   95SAPC  H17Y 9352   5.590   4.728   5.037  1.7259 -0.7354  0.9710
   95SAPC  C318 9353   5.440   4.586   5.116 -0.5791 -0.0324 -0.1147
   95SAPC  H18X 9354   5.378   4.507   5.067 -0.4191  0.5583 -1.3179
   95SAPC  H18Y 9355   5.378   4.677   5.129  2.8775  2.3876  0.7042
   95SAPC  H18Z 9356   5.486   4.555   5.212 -1.8417 -1.0707  0.1886
   96SAPC     N 9357   0.010   1.430   2.991  0.3174  0.0791  0.6336
   96SAPC   C12 9358  -0.043   1.572   3.009  0.4156  0.1420  0.3580
   96SAPC  H12A 9359  -0.063   1.583   3.115 -1.3616  0.4503  0.0257
   96SAPC  H12B 9360  -0.144   1.565   2.972  0.7062  0.1760 -0.4557
   96SAPC   C13 9361  -0.103   1.332   3.008 -0.1635 -0.2975 -0.1444
   96SAPC  H13A 9362  -0.072   1.229   3.001 -0.0549 -0.1901 -1.3741
   96SAPC  H13B 9363  -0.160   1.355   3.097 -0.8042 -1.4406 -0.2488
   96SAPC  H13C 9364  -0.173   1.344   2.926  1.7357 -2.1155 -2.1481
   96SAPC   C14 9365   0.073   1.410   2.851  0.5155 -0.1776  0.1918
   96SAPC  H14A 9366   0.149   1.487   2.845 -0.6360  0.9362 -0.6744
   96SAPC  H14B 9367   0.120   1.314   2.840 -1.9597 -1.4559  0.1303
   96SAPC  H14C 9368  -0.009   1.418   2.781  0.5840 -4.1467 -0.5443
   96SAPC   C15 9369   0.121   1.400   3.088 -0.1598  0.1141 -0.2046
   96SAPC  H15A 9370   0.136   1.293   3.090  0.7476  0.1559 -2.2998
   96SAPC  H15B 9371   0.211   1.452   3.057 -0.4868 -0.2213 -1.8037
   96SAPC  H15C 9372   0.091   1.425   3.189 -2.0352 -1.8021 -0.2310
   96SAPC   C11 9373   0.041   1.693   2.966  0.0604  0.2153  1.1203
   96SAPC  H11A 9374  -0.013   1.791   2.969 -0.8841 -0.0744 -2.2060
   96SAPC  H11B 9375   0.040   1.677   2.856 -1.1215 -0.3891  1.2056
   96SAPC     P 9376   0.205   1.774   3.146 -0.0757 -0.0419 -0.0680
   96SAPC   O13 9377   0.347   1.753   3.173  0.1338 -0.0636 -0.3755
   96SAPC   O14 9378   0.167   1.915   3.117  0.4400 -0.3688 -0.0200
   96SAPC   O12 9379   0.171   1.692   3.018  0.2883 -0.3162 -0.2369
   96SAPC   O11 9380   0.109   1.714   3.258 -0.2831 -0.1808  0.1119
   96SAPC    C1 9381   0.163   1.628   3.362 -0.2816  0.4566 -0.0942
   96SAPC    HA 9382   0.100   1.537   3.349 -0.8250  0.7365  0.5478
   96SAPC    HB 9383   0.268   1.594   3.353 -0.8368 -1.0427 -1.4823
   96SAPC    C2 9384   0.128   1.669   3.510 -0.6099 -0.2366  0.3906
   96SAPC    HS 9385   0.024   1.707   3.507 -0.6113 -0.2989 -0.5043
   96SAPC   O21 9386   0.226   1.768   3.543  0.1794 -0.1217 -0.0414
   96SAPC   C21 9387   0.191   1.840   3.654 -0.4464  0.3232  0.2147
   96SAPC   O22 9388   0.080   1.854   3.702 -0.1343  0.0252  0.5487
   96SAPC   C22 9389   0.316   1.904   3.712 -0.3942 -0.1571 -0.0310
   96SAPC   H2R 9390   0.377   1.822   3.755 -3.5205 -0.8854  3.5057
   96SAPC   H2S 9391   0.376   1.955   3.633  2.4101 -1.2056  1.3019
   96SAPC    C3 9392   0.146   1.541   3.595  0.7076 -0.1761 -0.8903
   96SAPC    HX 9393   0.245   1.494   3.578  1.0603  0.2537 -0.0389
   96SAPC    HY 9394   0.076   1.465   3.554 -0.7921 -1.6544  3.8333
   96SAPC   O31 9395   0.121   1.563   3.733 -0.0092 -0.0634  0.0933
   96SAPC   C31 9396  -0.005   1.573   3.775 -0.0242 -0.7079 -0.2959
   96SAPC   O32 9397  -0.098   1.556   3.697  0.5140 -0.3021  0.3082
   96SAPC   C32 9398  -0.012   1.614   3.922  0.1443 -0.6739  0.1415
   96SAPC   H2X 9399   0.013   1.723   3.918 -1.3125 -0.3309 -2.8981
   96SAPC   H2Y 9400   0.065   1.559   3.980  1.9691  1.0492 -0.5345
   96SAPC   C23 9401   0.291   2.011   3.819 -0.3602  0.2189 -0.2917
   96SAPC   H3R 9402   0.233   1.959   3.898 -2.2126  1.2745 -0.8784
   96SAPC   H3S 9403   0.227   2.088   3.770 -2.6812 -1.3358  0.1032
   96SAPC   C24 9404   0.419   2.070   3.869 -0.0836  0.2941 -0.5747
   96SAPC   H4R 9405   0.396   2.174   3.901 -1.4773  0.0266 -0.6674
   96SAPC   H4S 9406   0.482   2.084   3.778  1.8813 -1.5812  0.3971
   96SAPC   C25 9407   0.501   1.982   3.963 -0.3661 -0.2810  0.3923
   96SAPC   H5R 9408   0.536   1.885   3.924 -2.0801 -1.2511  1.1603
   96SAPC   C26 9409   0.545   2.018   4.082  0.0044 -0.2145  0.2090
   96SAPC   H6R 9410   0.607   1.939   4.125 -0.4000 -2.4941 -2.9951
   96SAPC   C27 9411   0.515   2.149   4.148  0.2886  0.2110  0.8762
   96SAPC   H7R 9412   0.527   2.131   4.257  0.7973 -1.0092  0.6429
   96SAPC   H7S 9413   0.411   2.182   4.127 -0.0616 -0.0258  2.1658
   96SAPC   C28 9414   0.609   2.257   4.095 -0.2766  0.0188  0.3863
   96SAPC   H8R 9415   0.664   2.242   4.002  0.8950  0.4306  0.9889
   96SAPC   C29 9416   0.633   2.368   4.169 -0.8046  0.4654  0.3426
   96SAPC   H9R 9417   0.695   2.451   4.131 -0.8814  1.0966  1.5520
   96SAPC  C210 9418   0.575   2.397   4.303  0.1388 -0.0836 -0.1237
   96SAPC  H10R 9419   0.522   2.314   4.355 -0.7861  2.7486  3.9186
   96SAPC  H10S 9420   0.500   2.475   4.279  0.1809 -0.3780 -1.2702
   96SAPC  C211 9421   0.672   2.468   4.406 -0.4932  0.0552  0.1339
   96SAPC  H11R 9422   0.665   2.578   4.410  0.2649  0.0948  3.1487
   96SAPC  C212 9423   0.764   2.410   4.484  0.4096  0.2844 -0.6385
   96SAPC  H12R 9424   0.835   2.462   4.550  0.8979 -1.1271 -0.0238
   96SAPC  C213 9425   0.773   2.262   4.501  0.0525 -0.0448  0.1452
   96SAPC  H13R 9426   0.874   2.224   4.473  1.2403  1.9704  1.4612
   96SAPC  H13S 9427   0.704   2.204   4.436  2.0522 -2.6424  0.1534
   96SAPC  C214 9428   0.735   2.217   4.640  0.4287 -0.7510 -0.4359
   96SAPC  H14R 9429   0.628   2.214   4.666  0.5754  1.0294  0.5058
   96SAPC  C215 9430   0.817   2.206   4.737  0.2371  0.7042  0.4579
   96SAPC  H15R 9431   0.775   2.185   4.837  1.0571 -1.1011  0.4553
   96SAPC  C216 9432   0.963   2.245   4.743 -0.3143 -0.1101  0.2613
   96SAPC  H16R 9433   1.004   2.261   4.641 -1.1817 -1.0223 -0.2585
   96SAPC  H16S 9434   1.032   2.169   4.784 -1.4077 -1.2716  0.0252
   96SAPC  C217 9435   0.990   2.375   4.820  0.4306  0.0614 -0.5007
   96SAPC  H17R 9436   0.960   2.463   4.759  3.7764  1.9297  0.2840
   96SAPC  H17S 9437   1.101   2.383   4.829  0.3339 -0.4082  1.8005
   96SAPC  C218 9438   0.939   2.390   4.966  0.4566  0.1410  0.2679
   96SAPC  H18R 9439   0.834   2.357   4.952  0.3413  0.5346  0.1954
   96SAPC  H18S 9440   0.946   2.493   5.008  1.1451 -0.2737  1.2254
   96SAPC  C219 9441   1.006   2.297   5.072 -0.1916  0.2015  0.3121
   96SAPC  H19R 9442   1.116   2.308   5.069 -0.2419  0.6996  0.2228
   96SAPC  H19S 9443   0.982   2.192   5.045  0.2786  0.1500  0.0827
   96SAPC  C220 9444   0.977   2.322   5.223  0.3720  0.2420 -0.0157
   96SAPC  H20R 9445   1.055   2.272   5.284 -0.4933  0.2480  1.1194
   96SAPC  H20S 9446   0.882   2.275   5.254  0.4218  0.8349  1.0727
   96SAPC  H20T 9447   0.985   2.430   5.249  0.4945  0.1400  0.3772
   96SAPC   C33 9448  -0.156   1.599   3.980 -0.4037 -0.0870  0.7104
   96SAPC   H3X 9449  -0.190   1.493   3.974 -0.7099 -0.0376  1.3907
   96SAPC   H3Y 9450  -0.230   1.672   3.943 -1.5420 -1.1101  0.8984
   96SAPC   C34 9451  -0.145   1.624   4.130 -0.3746 -0.5279  0.1158
   96SAPC   H4X 9452  -0.094   1.720   4.151 -2.2941  0.2342  1.6360
   96SAPC   H4Y 9453  -0.079   1.547   4.174  0.7779 -1.2936 -2.6969
   96SAPC   C35 9454  -0.278   1.627   4.204 -0.2024 -0.2309 -0.0778
   96SAPC   H5X 9455  -0.319   1.524   4.210 -0.2672 -0.1458  1.3113
   96SAPC   H5Y 9456  -0.354   1.695   4.162 -0.6258  1.2246  2.7398
   96SAPC   C36 9457  -0.264   1.650   4.354 -0.1150 -0.4300  0.3968
   96SAPC   H6X 9458  -0.370   1.648   4.390 -1.1086  3.0840 -1.8387
   96SAPC   H6Y 9459  -0.231   1.754   4.375  0.9541 -0.5290 -0.7493
   96SAPC   C37 9460  -0.168   1.559   4.438 -0.0365 -0.0394  0.2351
   96SAPC   H7X 9461  -0.067   1.580   4.398 -0.2446 -0.0594 -0.3067
   96SAPC   H7Y 9462  -0.193   1.452   4.424 -0.1328  0.0350 -0.1913
   96SAPC   C38 9463  -0.167   1.595   4.591 -0.4219  0.2442  0.8727
   96SAPC   H8X 9464  -0.123   1.502   4.634  0.9415 -0.2170 -1.3584
   96SAPC   H8Y 9465  -0.275   1.596   4.618 -0.1898  2.3655  1.8756
   96SAPC   C39 9466  -0.095   1.724   4.640 -0.0855  0.4223  0.1164
   96SAPC   H9X 9467  -0.129   1.811   4.580  0.8510  0.3719 -0.5047
   96SAPC   H9Y 9468   0.016   1.714   4.638 -0.1233 -0.5401  1.4693
   96SAPC  C310 9469  -0.126   1.774   4.785 -0.4756 -0.3074  0.0663
   96SAPC  H10X 9470  -0.232   1.779   4.818 -0.5264  1.5108 -0.2520
   96SAPC  H10Y 9471  -0.105   1.883   4.785 -0.2018 -0.3393 -1.1853
   96SAPC  C311 9472  -0.043   1.694   4.890  0.2417  0.1013 -1.0339
   96SAPC  H11X 9473   0.061   1.687   4.850  1.8087  4.5046  1.5525
   96SAPC  H11Y 9474  -0.094   1.599   4.916  0.6713 -0.6843 -2.9678
   96SAPC  C312 9475  -0.023   1.773   5.021  0.3142  0.2616  0.6764
   96SAPC  H12X 9476  -0.123   1.791   5.066  0.0410  0.3098  0.0617
   96SAPC  H12Y 9477   0.027   1.866   4.987 -0.9650  0.3459 -1.1358
   96SAPC  C313 9478   0.085   1.706   5.105  0.1752  0.2929  0.2644
   96SAPC  H13X 9479   0.170   1.686   5.037  0.6088  0.4657  0.7469
   96SAPC  H13Y 9480   0.039   1.611   5.141  0.7397  0.8377  2.6277
   96SAPC  C314 9481   0.141   1.788   5.229 -0.0519 -0.1848 -0.3967
   96SAPC  H14X 9482   0.163   1.894   5.202  0.7723  0.1047  1.2943
   96SAPC  H14Y 9483   0.225   1.726   5.264 -0.2885 -0.2948 -0.0220
   96SAPC  C315 9484   0.042   1.795   5.359 -0.3624 -0.0859  0.7763
   96SAPC  H15X 9485   0.030   1.690   5.394  2.2612 -0.2332  1.3979
   96SAPC  H15Y 9486  -0.057   1.842   5.337  0.6698  1.6346 -0.3806
   96SAPC  C316 9487   0.111   1.879   5.481  0.8857  0.7957  0.7568
   96SAPC  H16X 9488   0.071   1.982   5.472  0.6449  0.7433  1.2619
   96SAPC  H16Y 9489   0.222   1.871   5.475  0.8186 -0.8766  1.1054
   96SAPC  C317 9490   0.063   1.814   5.611  0.0795 -0.5919  0.4044
   96SAPC  H17X 9491   0.102   1.711   5.596 -2.2146 -1.2780 -1.3675
   96SAPC  H17Y 9492  -0.047   1.822   5.617  0.2845  1.6010  3.6061
   96SAPC  C318 9493   0.129   1.869   5.734 -0.3200 -0.3310 -0.4315
   96SAPC  H18X 9494   0.239   1.874   5.718  0.0241 -1.3546  1.3600
   96SAPC  H18Y 9495   0.110   1.812   5.827  2.3808 -0.9950 -0.2105
   96SAPC  H18Z 9496   0.106   1.972   5.769  0.9612 -0.3585  0.5687
   97SAPC     N 9497   5.988   3.583   2.824 -0.2704  0.2565 -0.6281
   97SAPC   C12 9498   5.904   3.636   2.937  0.1871  0.0357  0.4023
   97SAPC  H12A 9499   5.799   3.616   2.923  0.2175  0.7584 -1.0425
   97SAPC  H12B 9500   5.911   3.744   2.935  0.3494  0.0449  1.1487
   97SAPC   C13 9501   6.132   3.632   2.830  0.1750 -0.2011 -0.2062
   97SAPC  H13A 9502   6.182   3.601   2.921 -0.9369 -1.1465  0.1084
   97SAPC  H13B 9503   6.188   3.603   2.743 -0.3666 -2.6146  0.1534
   97SAPC  H13C 9504   6.129   3.739   2.834  0.0151 -0.2249  0.8443
   97SAPC   C14 9505   5.988   3.436   2.833 -0.1455  0.1066 -0.1224
   97SAPC  H14A 9506   6.072   3.399   2.776 -0.7088 -2.2634  0.4639
   97SAPC  H14B 9507   6.000   3.402   2.935 -0.9355  0.5671  0.1324
   97SAPC  H14C 9508   5.898   3.395   2.788 -0.6346 -1.2219  1.9357
   97SAPC   C15 9509   5.938   3.626   2.693 -0.5879 -0.6709  0.1272
   97SAPC  H15A 9510   5.838   3.594   2.670 -0.7284 -0.4553  0.4253
   97SAPC  H15B 9511   5.939   3.734   2.683  0.2219 -0.7040 -0.2521
   97SAPC  H15C 9512   6.002   3.584   2.617 -2.3291  0.7809 -2.3062
   97SAPC   C11 9513   5.950   3.596   3.079 -0.0075 -0.3816  0.0904
   97SAPC  H11A 9514   5.909   3.670   3.151  0.7173  1.0271 -0.9034
   97SAPC  H11B 9515   6.060   3.607   3.084  0.0128  1.0975 -2.1982
   97SAPC     P 9516   5.748   3.430   3.135  0.0205 -0.6862 -0.0896
   97SAPC   O13 9517   5.676   3.541   3.070 -0.8069 -0.1481 -0.0602
   97SAPC   O14 9518   5.711   3.296   3.097 -0.5607  0.1786  0.9316
   97SAPC   O12 9519   5.902   3.466   3.113 -0.7970  0.3488 -0.0462
   97SAPC   O11 9520   5.733   3.443   3.295 -0.1597  0.5232 -0.1484
   97SAPC    C1 9521   5.705   3.566   3.366 -0.1857  0.4196  1.2440
   97SAPC    HA 9522   5.745   3.654   3.312 -2.2104  1.9370  2.0631
   97SAPC    HB 9523   5.596   3.582   3.381 -0.4811 -2.1381  2.2774
   97SAPC    C2 9524   5.770   3.563   3.507  0.1497 -0.0592  0.1721
   97SAPC    HS 9525   5.756   3.667   3.543 -2.0452 -0.1039 -0.4448
   97SAPC   O21 9526   5.909   3.525   3.500 -0.9041 -0.1090  0.6826
   97SAPC   C21 9527   6.003   3.605   3.449  0.1991 -0.0766 -0.0916
   97SAPC   O22 9528   5.994   3.721   3.413  0.0400  0.0314  0.0829
   97SAPC   C22 9529   6.134   3.525   3.439  0.2829  0.9096 -0.4069
   97SAPC   H2R 9530   6.129   3.446   3.517 -3.0345 -1.2759 -2.5494
   97SAPC   H2S 9531   6.136   3.470   3.342  1.4802 -0.3561  0.3053
   97SAPC    C3 9532   5.696   3.470   3.612 -0.3150 -0.4182 -0.3389
   97SAPC    HX 9533   5.684   3.364   3.585 -0.2669 -1.1201  2.1222
   97SAPC    HY 9534   5.592   3.504   3.628 -0.7471 -2.5211  1.8025
   97SAPC   O31 9535   5.763   3.479   3.743 -0.3377 -0.4365  0.8303
   97SAPC   C31 9536   5.822   3.371   3.786  0.7955  0.1175 -0.7202
   97SAPC   O32 9537   5.848   3.267   3.724 -0.3377  0.2166  0.6483
   97SAPC   C32 9538   5.854   3.374   3.933  0.8356 -0.1168 -0.1798
   97SAPC   H2X 9539   5.939   3.444   3.944  0.5516  0.2389 -0.2372
   97SAPC   H2Y 9540   5.885   3.277   3.978 -3.7804 -1.0759  1.5527
   97SAPC   C23 9541   6.268   3.607   3.461 -0.2264  0.0426  0.0970
   97SAPC   H3R 9542   6.268   3.679   3.377  0.5919  0.5395  0.5115
   97SAPC   H3S 9543   6.348   3.531   3.449  0.6382  0.7648  1.1240
   97SAPC   C24 9544   6.284   3.684   3.595 -0.0947  0.1885 -0.5765
   97SAPC   H4R 9545   6.209   3.765   3.599  0.5820  0.7529  1.9328
   97SAPC   H4S 9546   6.381   3.737   3.586 -0.8438  2.1393  1.9645
   97SAPC   C25 9547   6.270   3.590   3.717 -0.1703  0.7709  0.4049
   97SAPC   H5R 9548   6.344   3.509   3.721 -1.3820 -0.6592 -2.8241
   97SAPC   C26 9549   6.182   3.605   3.818 -0.0760 -0.4836 -0.3242
   97SAPC   H6R 9550   6.176   3.533   3.901 -1.0886  0.8232  0.7641
   97SAPC   C27 9551   6.081   3.718   3.830 -0.2304  0.1614 -0.0025
   97SAPC   H7R 9552   5.989   3.688   3.885 -0.5915  0.9126 -0.1824
   97SAPC   H7S 9553   6.033   3.745   3.734  0.3898  0.8322 -0.1277
   97SAPC   C28 9554   6.128   3.843   3.904 -0.2815 -0.0475 -0.7045
   97SAPC   H8R 9555   6.154   3.928   3.841  0.3203 -0.5096 -1.0872
   97SAPC   C29 9556   6.148   3.854   4.037 -0.0392  0.2163  0.1833
   97SAPC   H9R 9557   6.183   3.947   4.083  2.2741 -1.6024  2.4112
   97SAPC  C210 9558   6.129   3.753   4.143 -0.2438  0.1724 -0.6165
   97SAPC  H10R 9559   6.057   3.674   4.111  0.2834 -0.0839 -1.1803
   97SAPC  H10S 9560   6.072   3.807   4.222  1.3637  1.6690 -0.4407
   97SAPC  C211 9561   6.257   3.705   4.197  0.1978 -0.2865  0.2213
   97SAPC  H11R 9562   6.313   3.641   4.127 -2.4029 -2.8652  0.2778
   97SAPC  C212 9563   6.309   3.719   4.318  0.4101  0.0274 -0.3990
   97SAPC  H12R 9564   6.405   3.669   4.340  0.5581  1.4528  2.7169
   97SAPC  C213 9565   6.257   3.808   4.429 -0.3751 -0.0337 -0.0704
   97SAPC  H13R 9566   6.236   3.741   4.515  0.5328 -1.5791 -1.0128
   97SAPC  H13S 9567   6.159   3.856   4.406  0.2869  1.3814  0.0189
   97SAPC  C214 9568   6.366   3.905   4.464 -0.1683  0.7823 -1.0397
   97SAPC  H14R 9569   6.429   3.931   4.378 -0.0873  0.7670 -0.9852
   97SAPC  C215 9570   6.394   3.961   4.582 -0.6583 -0.2934 -0.7845
   97SAPC  H15R 9571   6.472   4.038   4.579 -1.0646  0.1214 -0.8425
   97SAPC  C216 9572   6.311   3.952   4.707  0.3687 -0.3313  0.5256
   97SAPC  H16R 9573   6.278   3.848   4.727 -1.9984  0.7582  2.8094
   97SAPC  H16S 9574   6.223   4.017   4.692  1.4789  1.2041  0.3804
   97SAPC  C217 9575   6.380   4.016   4.829 -0.3167 -0.9454  0.2203
   97SAPC  H17R 9576   6.321   4.004   4.922 -0.2887 -0.9855  0.2332
   97SAPC  H17S 9577   6.390   4.126   4.816  2.8753 -1.1429  0.1387
   97SAPC  C218 9578   6.517   3.951   4.860  0.0500 -0.1375 -0.8673
   97SAPC  H18R 9579   6.585   3.969   4.774  0.5810  1.1858 -0.1954
   97SAPC  H18S 9580   6.504   3.841   4.867  0.3029 -0.0645  2.1234
   97SAPC  C219 9581   6.582   4.010   4.990 -0.2488 -0.0895  0.3382
   97SAPC  H19R 9582   6.573   4.120   4.973 -1.2362 -0.1186  0.5645
   97SAPC  H19S 9583   6.691   3.989   4.992  0.2540  2.1311 -0.4667
   97SAPC  C220 9584   6.525   3.964   5.125 -0.3453  0.0561 -0.7280
   97SAPC  H20R 9585   6.552   3.859   5.148 -0.6764 -0.5254 -2.7430
   97SAPC  H20S 9586   6.416   3.981   5.138 -0.0803  0.3991  1.4061
   97SAPC  H20T 9587   6.567   4.035   5.200 -0.9941  0.6645 -0.9254
   97SAPC   C33 9588   5.736   3.423   4.010 -0.5527 -0.1729  0.0371
   97SAPC   H3X 9589   5.655   3.356   3.975  0.2087 -1.0913 -0.0154
   97SAPC   H3Y 9590   5.696   3.521   3.978 -1.3263 -0.2902  0.6117
   97SAPC   C34 9591   5.741   3.414   4.160  0.1844 -0.0464 -0.1404
   97SAPC   H4X 9592   5.771   3.313   4.195  0.7841  1.3527  3.9100
   97SAPC   H4Y 9593   5.637   3.416   4.198 -0.0778 -0.2555 -0.8346
   97SAPC   C35 9594   5.827   3.508   4.234  0.0967 -0.0568 -0.5272
   97SAPC   H5X 9595   5.787   3.612   4.232  2.4468  0.8909 -0.9216
   97SAPC   H5Y 9596   5.924   3.507   4.181 -0.2158 -0.7263 -1.1043
   97SAPC   C36 9597   5.845   3.461   4.381 -0.0282 -0.4132 -0.1429
   97SAPC   H6X 9598   5.885   3.357   4.379 -1.1360 -0.8356 -1.0032
   97SAPC   H6Y 9599   5.747   3.460   4.432  0.3528 -1.1377  0.6093
   97SAPC   C37 9600   5.949   3.539   4.459  0.4768 -0.6204 -0.1874
   97SAPC   H7X 9601   5.943   3.646   4.432  1.2931 -0.8561 -1.3822
   97SAPC   H7Y 9602   6.054   3.517   4.430  0.9783  1.1102  0.2017
   97SAPC   C38 9603   5.936   3.521   4.622 -0.1470  0.1302  0.8961
   97SAPC   H8X 9604   5.977   3.421   4.648  0.0124  0.2386  1.0640
   97SAPC   H8Y 9605   5.829   3.518   4.653 -0.0430 -1.4086  1.1982
   97SAPC   C39 9606   6.018   3.622   4.695  0.0097 -0.0064  0.4574
   97SAPC   H9X 9607   5.968   3.720   4.679  0.4910 -0.0741 -1.7295
   97SAPC   H9Y 9608   6.123   3.618   4.659 -0.2849  0.0129 -0.4229
   97SAPC  C310 9609   6.037   3.586   4.839  0.0323  0.5452  0.1588
   97SAPC  H10X 9610   6.086   3.488   4.856  0.2817  0.3809 -1.3372
   97SAPC  H10Y 9611   5.939   3.585   4.890 -0.6474 -0.6819 -1.0967
   97SAPC  C311 9612   6.128   3.681   4.927 -0.2350 -0.0759 -0.1728
   97SAPC  H11X 9613   6.089   3.785   4.923  0.2460  0.1108 -0.0053
   97SAPC  H11Y 9614   6.229   3.683   4.879  0.7735 -0.4713  1.8443
   97SAPC  C312 9615   6.153   3.619   5.067 -0.6900  0.3681  0.2928
   97SAPC  H12X 9616   6.186   3.513   5.064  1.1471  0.9138 -1.8043
   97SAPC  H12Y 9617   6.055   3.625   5.119 -1.6595 -0.9967 -1.2584
   97SAPC  C313 9618   6.249   3.698   5.151 -0.0350  0.6356 -0.0248
   97SAPC  H13X 9619   6.273   3.801   5.116  1.4131 -0.0790 -1.2705
   97SAPC  H13Y 9620   6.349   3.650   5.136 -0.6505 -0.2387 -1.5290
   97SAPC  C314 9621   6.223   3.696   5.303  0.1147  0.6105 -0.6130
   97SAPC  H14X 9622   6.182   3.596   5.328  1.1844  0.2556 -0.2171
   97SAPC  H14Y 9623   6.142   3.767   5.329 -0.2320  0.3882 -1.0748
   97SAPC  C315 9624   6.349   3.706   5.391  0.0184 -0.2213  0.1948
   97SAPC  H15X 9625   6.395   3.804   5.364  0.8386 -0.6869 -0.1231
   97SAPC  H15Y 9626   6.417   3.619   5.379  0.4947 -0.2406  2.5143
   97SAPC  C316 9627   6.312   3.724   5.537 -0.0366  0.1010 -0.4253
   97SAPC  H16X 9628   6.261   3.638   5.584  0.8175 -0.0323  0.2818
   97SAPC  H16Y 9629   6.243   3.811   5.545  0.8851  0.7108  1.6895
   97SAPC  C317 9630   6.425   3.768   5.640 -0.0441  0.5160  0.1081
   97SAPC  H17X 9631   6.372   3.787   5.736  1.0654 -3.8733  1.8295
   97SAPC  H17Y 9632   6.482   3.845   5.583 -0.0989  0.6497  0.2345
   97SAPC  C318 9633   6.527   3.663   5.674  0.0932  0.0990 -0.2585
   97SAPC  H18X 9634   6.492   3.588   5.748 -2.9173  1.3854 -0.2279
   97SAPC  H18Y 9635   6.615   3.712   5.721  0.1727 -0.8379  0.6136
   97SAPC  H18Z 9636   6.566   3.603   5.588  2.0789 -1.4994  1.6372
   98SAPC     N 9637   1.498   5.654   2.604 -0.2454  0.5902  0.0427
   98SAPC   C12 9638   1.468   5.624   2.751  0.3083  0.4278  0.4267
   98SAPC  H12A 9639   1.530   5.695   2.805  1.0688  0.3240 -0.2974
   98SAPC  H12B 9640   1.498   5.525   2.781  0.9664  0.0361 -1.4467
   98SAPC   C13 9641   1.643   5.671   2.569 -0.6437  0.2240 -0.1195
   98SAPC  H13A 9642   1.689   5.760   2.608  1.7196 -0.4735 -1.1433
   98SAPC  H13B 9643   1.696   5.581   2.599 -1.6928 -0.6415 -0.7659
   98SAPC  H13C 9644   1.663   5.673   2.463 -0.8544  1.0420 -0.1477
   98SAPC   C14 9645   1.441   5.534   2.514 -0.5298  0.3876 -0.4160
   98SAPC  H14A 9646   1.342   5.515   2.550 -0.6691  0.8827 -0.5236
   98SAPC  H14B 9647   1.436   5.572   2.413 -0.0491  1.3343 -0.1029
   98SAPC  H14C 9648   1.510   5.451   2.519 -2.0834 -1.0369 -1.6737
   98SAPC   C15 9649   1.429   5.781   2.564 -0.1183 -0.9321  1.0362
   98SAPC  H15A 9650   1.445   5.809   2.460 -0.6030 -0.6998  1.0212
   98SAPC  H15B 9651   1.322   5.768   2.555 -0.3795  1.9954 -3.0844
   98SAPC  H15C 9652   1.457   5.865   2.626  0.7645 -1.2429  1.0745
   98SAPC   C11 9653   1.326   5.652   2.802  0.8053 -0.0089  1.0308
   98SAPC  H11A 9654   1.295   5.757   2.785  0.6084 -0.1215  0.6873
   98SAPC  H11B 9655   1.315   5.647   2.913 -1.5397  0.7503  0.8868
   98SAPC     P 9656   1.173   5.436   2.787  0.2009 -0.2794  0.3005
   98SAPC   O13 9657   1.043   5.424   2.723  0.1012  0.4736  0.1361
   98SAPC   O14 9658   1.282   5.339   2.765 -0.2056  0.2220  0.2443
   98SAPC   O12 9659   1.225   5.574   2.732 -0.0188 -0.2603 -0.2864
   98SAPC   O11 9660   1.154   5.463   2.946  0.0742 -0.4322 -0.1833
   98SAPC    C1 9661   1.045   5.553   2.981  0.0145 -0.1955  0.0692
   98SAPC    HA 9662   1.059   5.655   2.939  0.5856 -0.7059 -1.0055
   98SAPC    HB 9663   0.942   5.520   2.953 -0.7890  1.7482  0.5355
   98SAPC    C2 9664   1.044   5.570   3.138 -0.1516 -0.3262  0.0132
   98SAPC    HS 9665   0.973   5.653   3.160  0.6426  0.0987  1.0766
   98SAPC   O21 9666   1.177   5.592   3.187  0.1396  0.1648 -0.1280
   98SAPC   C21 9667   1.231   5.715   3.180  0.9763  0.2995  0.1232
   98SAPC   O22 9668   1.181   5.807   3.122  0.1701 -0.2502 -0.2039
   98SAPC   C22 9669   1.361   5.720   3.249  0.4069  0.0955  0.8994
   98SAPC   H2R 9670   1.441   5.681   3.182 -0.8942 -0.6147 -0.2866
   98SAPC   H2S 9671   1.380   5.823   3.285 -2.9008  0.5307  1.7630
   98SAPC    C3 9672   0.977   5.454   3.218 -0.0037 -0.1261 -0.0848
   98SAPC    HX 9673   1.022   5.353   3.207  2.4301  0.7453  1.2274
   98SAPC    HY 9674   0.874   5.445   3.177 -0.7755 -0.7150  1.8507
   98SAPC   O31 9675   0.960   5.496   3.353  0.1719  0.9236  0.9656
   98SAPC   C31 9676   1.055   5.456   3.437  0.3796 -0.2451  0.4522
   98SAPC   O32 9677   1.133   5.366   3.414 -0.4499 -0.2166 -0.2363
   98SAPC   C32 9678   1.058   5.550   3.550  0.1414  0.1385 -0.4717
   98SAPC   H2X 9679   0.961   5.535   3.602  0.6239  2.1749  1.1499
   98SAPC   H2Y 9680   1.073   5.655   3.517  0.1149  0.1542 -0.4342
   98SAPC   C23 9681   1.361   5.623   3.367  0.3051  0.1921  0.0288
   98SAPC   H3R 9682   1.330   5.518   3.345  0.4153  0.4590 -1.4738
   98SAPC   H3S 9683   1.288   5.663   3.441  0.4465  0.3744  0.0674
   98SAPC   C24 9684   1.498   5.622   3.433  0.0807 -0.3040  0.3615
   98SAPC   H4R 9685   1.570   5.595   3.353 -1.0854 -0.1599 -0.7746
   98SAPC   H4S 9686   1.499   5.535   3.503  0.5572 -0.2327  0.4453
   98SAPC   C25 9687   1.542   5.744   3.505 -0.5550 -0.1990 -0.8158
   98SAPC   H5R 9688   1.524   5.831   3.440 -0.0362 -0.2388 -1.0203
   98SAPC   C26 9689   1.622   5.748   3.615  0.1355 -0.2022 -0.1910
   98SAPC   H6R 9690   1.637   5.846   3.663  0.4801 -0.4815  0.2753
   98SAPC   C27 9691   1.680   5.629   3.681  0.3751  0.0341  0.0360
   98SAPC   H7R 9692   1.784   5.651   3.714  0.9872  0.0924 -1.8555
   98SAPC   H7S 9693   1.682   5.553   3.600  1.4967  2.0046 -1.8767
   98SAPC   C28 9694   1.597   5.586   3.805 -0.4511 -0.0069  0.0470
   98SAPC   H8R 9695   1.502   5.535   3.781  0.1044 -0.5990 -0.9510
   98SAPC   C29 9696   1.604   5.623   3.930  0.4651  0.0414  0.4138
   98SAPC   H9R 9697   1.543   5.561   3.998  0.3478  0.1262  0.3873
   98SAPC  C210 9698   1.705   5.717   3.997  0.5338  0.9206  0.3465
   98SAPC  H10R 9699   1.756   5.775   3.918 -0.4157  3.0516  1.2426
   98SAPC  H10S 9700   1.774   5.646   4.048  2.0884  1.7540 -0.5248
   98SAPC  C211 9701   1.636   5.803   4.095  0.3076 -0.0074  0.2517
   98SAPC  H11R 9702   1.546   5.856   4.063  1.2346  1.5252  0.1157
   98SAPC  C212 9703   1.661   5.804   4.229  0.2374 -0.7469  0.6524
   98SAPC  H12R 9704   1.599   5.879   4.280 -1.7471 -1.3626 -0.7428
   98SAPC  C213 9705   1.764   5.737   4.312  0.1197 -0.2083  0.0511
   98SAPC  H13R 9706   1.838   5.698   4.239  1.3260  0.1654  1.0154
   98SAPC  H13S 9707   1.710   5.656   4.365 -0.0156 -0.9206 -1.1374
   98SAPC  C214 9708   1.832   5.837   4.402  0.2929  0.1742  0.3848
   98SAPC  H14R 9709   1.873   5.926   4.351 -0.0807  0.1729  0.0790
   98SAPC  C215 9710   1.852   5.833   4.534 -0.2156  0.7572 -0.1033
   98SAPC  H15R 9711   1.902   5.920   4.579 -0.1543  0.2398  0.8475
   98SAPC  C216 9712   1.805   5.723   4.628  0.2847 -0.0192  0.5600
   98SAPC  H16R 9713   1.774   5.627   4.581 -0.1525  0.4263 -0.0851
   98SAPC  H16S 9714   1.703   5.753   4.659 -1.2054 -3.7916 -0.1061
   98SAPC  C217 9715   1.890   5.691   4.752  0.3846 -0.3956 -0.1628
   98SAPC  H17R 9716   1.997   5.681   4.724 -0.0269 -1.1021 -1.5746
   98SAPC  H17S 9717   1.852   5.594   4.791  1.7368 -0.1800  1.8482
   98SAPC  C218 9718   1.874   5.811   4.855  0.1137  0.2193  0.7679
   98SAPC  H18R 9719   1.819   5.892   4.803 -2.3372 -1.3873  0.7052
   98SAPC  H18S 9720   1.976   5.848   4.882 -0.1439  1.7627 -0.2202
   98SAPC  C219 9721   1.803   5.779   4.988  0.1112  1.0457 -0.2943
   98SAPC  H19R 9722   1.711   5.726   4.955 -0.7971  1.6152  1.2598
   98SAPC  H19S 9723   1.775   5.875   5.037 -3.1652 -1.1325  2.5416
   98SAPC  C220 9724   1.874   5.674   5.076  0.6469  0.1447  1.0372
   98SAPC  H20R 9725   1.801   5.634   5.150  1.5509  1.5062  2.7120
   98SAPC  H20S 9726   1.954   5.723   5.135  1.9228  0.9549 -1.2275
   98SAPC  H20T 9727   1.924   5.591   5.023  2.3731  1.0080  1.2703
   98SAPC   C33 9728   1.157   5.505   3.654  0.0719  0.0984 -0.2805
   98SAPC   H3X 9729   1.256   5.507   3.603 -0.4331 -0.6107 -1.3308
   98SAPC   H3Y 9730   1.126   5.401   3.678 -1.7018  0.8323  0.8109
   98SAPC   C34 9731   1.153   5.577   3.784 -0.5400 -0.6843 -0.5249
   98SAPC   H4X 9732   1.199   5.522   3.869 -2.7450 -0.6618  0.7465
   98SAPC   H4Y 9733   1.052   5.589   3.828  1.0328  0.9080  3.1087
   98SAPC   C35 9734   1.219   5.716   3.771  0.3006  0.3418 -0.4825
   98SAPC   H5X 9735   1.181   5.768   3.681 -1.6016 -0.9450 -0.4869
   98SAPC   H5Y 9736   1.325   5.685   3.758  1.1474  1.5670  2.6512
   98SAPC   C36 9737   1.204   5.800   3.897  0.5382  0.4605 -0.4629
   98SAPC   H6X 9738   1.221   5.745   3.992  0.4457 -0.0739 -0.7501
   98SAPC   H6Y 9739   1.101   5.841   3.893  0.3628  0.0707  0.0272
   98SAPC   C37 9740   1.307   5.917   3.895  0.2563  0.3423 -0.3733
   98SAPC   H7X 9741   1.303   5.968   3.796  2.7238 -1.8364 -1.6908
   98SAPC   H7Y 9742   1.413   5.886   3.907  0.2707  1.1420  2.0843
   98SAPC   C38 9743   1.267   6.019   4.001 -0.4522  0.4345 -0.1175
   98SAPC   H8X 9744   1.167   6.062   3.982  0.2066  1.2251 -2.0861
   98SAPC   H8Y 9745   1.341   6.101   3.988  2.5560 -1.9060  0.8950
   98SAPC   C39 9746   1.286   5.980   4.142  0.6195  0.3899  0.6474
   98SAPC   H9X 9747   1.368   5.906   4.159  1.9902  1.6582 -0.1574
   98SAPC   H9Y 9748   1.191   5.926   4.163  0.1821  0.3042 -1.3505
   98SAPC  C310 9749   1.302   6.094   4.246  0.0732 -0.0263  0.2895
   98SAPC  H10X 9750   1.236   6.173   4.205  1.6526  1.3013  0.2325
   98SAPC  H10Y 9751   1.405   6.135   4.244  0.7224 -1.5965  0.0292
   98SAPC  C311 9752   1.261   6.059   4.390  0.0389 -1.0847  0.0637
   98SAPC  H11X 9753   1.184   5.979   4.387 -1.0297 -0.0486 -1.7285
   98SAPC  H11Y 9754   1.220   6.152   4.432 -2.9058 -0.7724 -3.0551
   98SAPC  C312 9755   1.378   6.000   4.468  0.0958  0.7127 -0.0722
   98SAPC  H12X 9756   1.423   5.922   4.403  2.7838  2.0769  0.0548
   98SAPC  H12Y 9757   1.342   5.945   4.558  1.4576 -0.1836 -0.0532
   98SAPC  C313 9758   1.494   6.091   4.516 -0.0455 -0.5200  0.0847
   98SAPC  H13X 9759   1.563   6.134   4.441  0.3574  0.7995  1.1635
   98SAPC  H13Y 9760   1.547   6.013   4.575  2.1382  0.0807 -0.9824
   98SAPC  C314 9761   1.436   6.209   4.600  0.1959  0.1593  0.0634
   98SAPC  H14X 9762   1.349   6.166   4.656 -2.2511  0.2960 -3.3371
   98SAPC  H14Y 9763   1.384   6.283   4.536 -0.5717  1.1716  1.7646
   98SAPC  C315 9764   1.544   6.264   4.694  0.9046  0.8760 -0.0253
   98SAPC  H15X 9765   1.599   6.174   4.731 -1.0817 -0.0378  0.8494
   98SAPC  H15Y 9766   1.483   6.308   4.776 -1.6142 -1.4725 -0.4827
   98SAPC  C316 9767   1.650   6.355   4.633  0.0426 -1.2229 -0.1290
   98SAPC  H16X 9768   1.700   6.311   4.544  0.1949  0.8869 -1.1582
   98SAPC  H16Y 9769   1.736   6.376   4.700  0.2351  0.6615 -0.9035
   98SAPC  C317 9770   1.598   6.489   4.583 -0.2846  0.1989 -0.4983
   98SAPC  H17X 9771   1.558   6.545   4.671 -1.8431 -0.5812 -0.6793
   98SAPC  H17Y 9772   1.522   6.478   4.503  2.6177 -0.5346 -3.3655
   98SAPC  C318 9773   1.706   6.572   4.503  0.0005  0.2055  0.3266
   98SAPC  H18X 9774   1.669   6.675   4.486 -3.1673 -0.7816  0.5737
   98SAPC  H18Y 9775   1.725   6.529   4.403 -0.7396 -0.9227  0.6522
   98SAPC  H18Z 9776   1.807   6.573   4.550 -0.7408  0.8370  1.9970
   99SAPC     N 9777   1.863   3.526   3.202  0.1235  0.1196  0.0285
   99SAPC   C12 9778   1.782   3.403   3.247 -0.0892  0.2899 -0.7910
   99SAPC  H12A 9779   1.845   3.316   3.247 -1.7441 -0.9937  0.6995
   99SAPC  H12B 9780   1.707   3.387   3.170 -0.5429 -0.7816 -0.1443
   99SAPC   C13 9781   1.779   3.646   3.189 -0.7358 -0.0200 -0.7146
   99SAPC  H13A 9782   1.745   3.654   3.087  1.9798  1.0271 -1.6257
   99SAPC  H13B 9783   1.702   3.648   3.265  0.1591  1.8654  0.2299
   99SAPC  H13C 9784   1.829   3.741   3.201 -0.6055 -0.2113  0.3586
   99SAPC   C14 9785   1.975   3.552   3.296 -0.3481  0.1346 -0.3356
   99SAPC  H14A 9786   2.027   3.642   3.267  2.8580 -1.5199 -0.1550
   99SAPC  H14B 9787   1.933   3.569   3.394  1.0998  1.1179  0.1358
   99SAPC  H14C 9788   2.051   3.477   3.315  0.5831  1.2263  0.3647
   99SAPC   C15 9789   1.922   3.495   3.062 -0.3801  0.1849 -0.1216
   99SAPC  H15A 9790   1.843   3.464   2.995  0.2344 -1.1886 -0.2470
   99SAPC  H15B 9791   1.965   3.588   3.029 -1.5268  1.2323  1.2170
   99SAPC  H15C 9792   1.991   3.412   3.069 -0.8103 -0.3042 -1.3470
   99SAPC   C11 9793   1.695   3.414   3.373  0.1382  0.1096 -0.1023
   99SAPC  H11A 9794   1.752   3.457   3.457  0.8689 -0.0862 -0.4897
   99SAPC  H11B 9795   1.662   3.316   3.415  1.0295  0.0037  0.3643
   99SAPC     P 9796   1.458   3.436   3.267  0.1838  0.7088 -0.2730
   99SAPC   O13 9797   1.382   3.547   3.212 -0.2788  0.4228 -0.3176
   99SAPC   O14 9798   1.501   3.329   3.169  0.3656 -0.7107  0.9035
   99SAPC   O12 9799   1.577   3.495   3.349 -0.3966  0.3284 -0.3249
   99SAPC   O11 9800   1.366   3.359   3.382 -0.0281  0.3264  0.5002
   99SAPC    C1 9801   1.351   3.409   3.509 -0.5483 -0.7513  0.1991
   99SAPC    HA 9802   1.435   3.371   3.570  0.1598 -1.5572 -1.2167
   99SAPC    HB 9803   1.336   3.519   3.511 -0.5492 -0.7439 -0.0768
   99SAPC    C2 9804   1.221   3.343   3.572  0.0577  0.1498 -0.0834
   99SAPC    HS 9805   1.225   3.234   3.590 -1.3986 -0.0262 -0.7027
   99SAPC   O21 9806   1.116   3.385   3.487  0.3714 -0.2324  0.3624
   99SAPC   C21 9807   1.016   3.299   3.471  0.7225  0.0309  0.4770
   99SAPC   O22 9808   0.999   3.199   3.542 -0.2483 -0.1856 -0.4059
   99SAPC   C22 9809   0.918   3.358   3.377  0.5772  0.5706  0.1693
   99SAPC   H2R 9810   0.966   3.411   3.291  2.4076  0.0625  0.8423
   99SAPC   H2S 9811   0.860   3.276   3.329  0.9055  0.7122 -0.4895
   99SAPC    C3 9812   1.191   3.405   3.709  0.0627 -0.1233 -0.3966
   99SAPC    HX 9813   1.088   3.384   3.744 -0.3529  0.4657 -1.2382
   99SAPC    HY 9814   1.199   3.515   3.702  1.3479 -0.1230  0.6212
   99SAPC   O31 9815   1.282   3.362   3.808  0.0705 -0.1127  0.0952
   99SAPC   C31 9816   1.268   3.243   3.868  0.6002 -0.0123  0.3640
   99SAPC   O32 9817   1.187   3.155   3.843  0.3584 -0.1766  0.3879
   99SAPC   C32 9818   1.377   3.236   3.983  0.1427  0.1393 -0.1011
   99SAPC   H2X 9819   1.430   3.333   3.973 -0.7513  0.5220 -1.4301
   99SAPC   H2Y 9820   1.445   3.151   3.963 -0.7457 -0.7680  0.6065
   99SAPC   C23 9821   0.824   3.460   3.450 -0.1687 -0.0891 -0.6658
   99SAPC   H3R 9822   0.762   3.509   3.372 -2.0277  0.9416  1.3374
   99SAPC   H3S 9823   0.886   3.540   3.496  0.5944 -0.3660 -1.1854
   99SAPC   C24 9824   0.734   3.383   3.552  0.2131 -0.6722 -0.6711
   99SAPC   H4R 9825   0.690   3.469   3.606  1.0153 -1.2083  0.9054
   99SAPC   H4S 9826   0.795   3.326   3.626 -1.5251  0.0415  1.4067
   99SAPC   C25 9827   0.630   3.310   3.484  0.7269  0.3977 -0.2516
   99SAPC   H5R 9828   0.632   3.315   3.375 -0.5172  2.5550 -0.2222
   99SAPC   C26 9829   0.516   3.268   3.543 -0.2594 -0.2210  0.3056
   99SAPC   H6R 9830   0.441   3.216   3.482  1.2228 -0.4813 -1.3894
   99SAPC   C27 9831   0.480   3.278   3.690 -1.0093 -0.6101  0.2198
   99SAPC   H7R 9832   0.433   3.378   3.703 -0.5165 -0.5443  1.8121
   99SAPC   H7S 9833   0.574   3.287   3.749 -1.4808  1.5334  0.7349
   99SAPC   C28 9834   0.390   3.169   3.726  0.1801 -0.0229 -0.2697
   99SAPC   H8R 9835   0.360   3.091   3.655 -2.2770  1.9120 -1.4785
   99SAPC   C29 9836   0.345   3.156   3.853 -1.0519 -0.2580  0.2719
   99SAPC   H9R 9837   0.268   3.084   3.884 -0.3987 -0.3384  1.8257
   99SAPC  C210 9838   0.383   3.259   3.962 -0.3834 -0.2005  0.1191
   99SAPC  H10R 9839   0.290   3.303   4.004  0.2564  0.3604  0.9919
   99SAPC  H10S 9840   0.428   3.352   3.920 -1.0199  0.1866  0.2700
   99SAPC  C211 9841   0.475   3.214   4.072 -0.2479  0.8724  0.0919
   99SAPC  H11R 9842   0.540   3.126   4.057  0.7529  0.9625  3.1018
   99SAPC  C212 9843   0.479   3.258   4.196 -0.0625 -0.1837 -0.5923
   99SAPC  H12R 9844   0.550   3.207   4.263  0.7229  2.9950  1.1942
   99SAPC  C213 9845   0.388   3.349   4.267 -0.4258  0.7961  0.4235
   99SAPC  H13R 9846   0.333   3.295   4.348 -1.0926  2.8278  1.4078
   99SAPC  H13S 9847   0.305   3.380   4.200 -1.9799  0.4888  2.0928
   99SAPC  C214 9848   0.452   3.472   4.303 -0.7940 -0.8254 -0.3031
   99SAPC  H14R 9849   0.533   3.516   4.243 -0.1788 -2.2276 -0.5505
   99SAPC  C215 9850   0.452   3.524   4.432 -0.4830  0.1983  0.3441
   99SAPC  H15R 9851   0.493   3.626   4.443 -0.7333  0.1127  2.5640
   99SAPC  C216 9852   0.379   3.481   4.550  0.4618  0.1957  0.5572
   99SAPC  H16R 9853   0.323   3.387   4.533 -0.7327  1.2958 -2.0231
   99SAPC  H16S 9854   0.308   3.564   4.569 -0.7944 -0.8964  0.8008
   99SAPC  C217 9855   0.452   3.470   4.686 -0.0085  0.4694 -0.3509
   99SAPC  H17R 9856   0.368   3.476   4.758 -0.6317  1.2122 -1.1151
   99SAPC  H17S 9857   0.515   3.559   4.703  0.7512 -0.4029  1.7732
   99SAPC  C218 9858   0.537   3.342   4.704  0.5466  0.4964 -0.2081
   99SAPC  H18R 9859   0.473   3.260   4.664  1.0253  1.6387 -3.5921
   99SAPC  H18S 9860   0.554   3.318   4.811 -3.2936  0.2085  0.4475
   99SAPC  C219 9861   0.674   3.355   4.638  0.0139 -0.3513  0.6499
   99SAPC  H19R 9862   0.725   3.442   4.685  0.2920  0.8378 -1.7261
   99SAPC  H19S 9863   0.653   3.385   4.533  4.0272  0.4629 -0.0794
   99SAPC  C220 9864   0.763   3.230   4.643 -0.4416  0.3342 -0.6903
   99SAPC  H20R 9865   0.718   3.144   4.590 -0.0020 -0.9098  0.8439
   99SAPC  H20S 9866   0.777   3.198   4.749  0.5973  2.3028 -0.1841
   99SAPC  H20T 9867   0.864   3.236   4.597  0.8174  0.2304  1.8785
   99SAPC   C33 9868   1.307   3.217   4.117 -0.1611  0.2993 -0.3660
   99SAPC   H3X 9869   1.241   3.128   4.120  0.3493 -0.2512 -2.8785
   99SAPC   H3Y 9870   1.241   3.305   4.131  0.5370  0.6916  0.5532
   99SAPC   C34 9871   1.409   3.224   4.236  0.2423  0.6926  0.5079
   99SAPC   H4X 9872   1.478   3.311   4.237  2.4064 -0.8996 -0.6895
   99SAPC   H4Y 9873   1.472   3.135   4.213 -1.2977 -0.3083  0.0125
   99SAPC   C35 9874   1.336   3.203   4.366  0.3319 -1.6321  0.2514
   99SAPC   H5X 9875   1.266   3.117   4.367  0.2038 -1.5365  1.7188
   99SAPC   H5Y 9876   1.280   3.292   4.403 -1.0602 -2.3717 -0.0166
   99SAPC   C36 9877   1.448   3.200   4.474 -0.0291 -0.0757  0.4189
   99SAPC   H6X 9878   1.527   3.269   4.439 -0.0150 -1.1376 -1.8261
   99SAPC   H6Y 9879   1.489   3.099   4.452  1.8038  0.1176  2.6092
   99SAPC   C37 9880   1.412   3.219   4.620  0.8708 -0.3239  0.0234
   99SAPC   H7X 9881   1.379   3.324   4.633  0.8602 -0.4273  0.8471
   99SAPC   H7Y 9882   1.498   3.191   4.684  0.5864 -0.2920  0.4201
   99SAPC   C38 9883   1.302   3.123   4.669 -0.7925  0.2793  0.5493
   99SAPC   H8X 9884   1.346   3.021   4.669  0.1399  0.5855 -2.5281
   99SAPC   H8Y 9885   1.230   3.126   4.584  0.7274 -0.6293 -0.8364
   99SAPC   C39 9886   1.231   3.167   4.792 -0.6529  0.3533 -0.0316
   99SAPC   H9X 9887   1.164   3.084   4.823  1.2248 -0.6658  1.5443
   99SAPC   H9Y 9888   1.175   3.259   4.765  0.8082  1.5681  0.8757
   99SAPC  C310 9889   1.339   3.183   4.906 -0.2066  0.1086 -0.2542
   99SAPC  H10X 9890   1.283   3.209   4.998 -1.2002 -1.1037 -0.4955
   99SAPC  H10Y 9891   1.416   3.260   4.883  1.5202 -1.4567  0.0482
   99SAPC  C311 9892   1.428   3.059   4.934  0.1053 -0.1428  0.2479
   99SAPC  H11X 9893   1.505   3.040   4.855  0.0830 -1.4775  0.5239
   99SAPC  H11Y 9894   1.359   2.972   4.938 -0.6433  0.4762  1.0488
   99SAPC  C312 9895   1.513   3.060   5.061  0.1876  0.1006 -0.3337
   99SAPC  H12X 9896   1.586   3.145   5.057  0.1051  0.1415 -1.2788
   99SAPC  H12Y 9897   1.569   2.965   5.060  0.4904  0.2429 -2.3469
   99SAPC  C313 9898   1.435   3.079   5.195  0.3715 -0.1648  0.6102
   99SAPC  H13X 9899   1.363   2.995   5.206 -1.8739  1.7076  0.8675
   99SAPC  H13Y 9900   1.371   3.169   5.190  2.7604  1.5818 -1.3392
   99SAPC  C314 9901   1.517   3.104   5.325 -0.6037 -0.1331 -0.1544
   99SAPC  H14X 9902   1.437   3.114   5.401  0.3350  2.3062  0.6072
   99SAPC  H14Y 9903   1.568   3.202   5.320 -1.9787  0.7669  1.9820
   99SAPC  C315 9904   1.607   2.988   5.369  0.3760  0.6294  0.2436
   99SAPC  H15X 9905   1.676   2.974   5.284  0.8535  2.6477  0.2354
   99SAPC  H15Y 9906   1.541   2.903   5.397  1.8864 -0.4283  0.7285
   99SAPC  C316 9907   1.679   3.030   5.503  0.1425 -0.3891  0.6185
   99SAPC  H16X 9908   1.606   3.048   5.585  1.2897  1.5755  1.2732
   99SAPC  H16Y 9909   1.727   3.129   5.494 -0.9327  0.1278  0.4553
   99SAPC  C317 9910   1.772   2.923   5.548 -0.6658  0.2794  0.2744
   99SAPC  H17X 9911   1.722   2.830   5.583 -0.3184 -0.2587 -0.6063
   99SAPC  H17Y 9912   1.834   2.967   5.628  0.8487  1.1149 -1.2804
   99SAPC  C318 9913   1.884   2.880   5.448 -0.7497  0.4078  0.2345
   99SAPC  H18X 9914   1.944   2.795   5.486 -1.6494  0.5206  1.9878
   99SAPC  H18Y 9915   1.955   2.966   5.449 -0.2477  0.0881  3.2981
   99SAPC  H18Z 9916   1.835   2.862   5.350  0.2631 -0.3509 -0.1454
  100SAPC     N 9917   4.177   0.328   2.931 -0.4014  0.0064  0.2433
  100SAPC   C12 9918   4.176   0.262   3.064  0.1096  0.0016  0.3870
  100SAPC  H12A 9919   4.094   0.191   3.060  1.5876 -1.8047  0.7175
  100SAPC  H12B 9920   4.148   0.333   3.140  2.8405  0.5313  1.0178
  100SAPC   C13 9921   4.179   0.227   2.821 -0.5931  0.1770  0.6063
  100SAPC  H13A 9922   4.145   0.270   2.729 -0.6705  3.0119  1.8720
  100SAPC  H13B 9923   4.270   0.174   2.797 -1.3052 -0.8431  0.0964
  100SAPC  H13C 9924   4.115   0.146   2.854  1.0198 -0.8762  1.3291
  100SAPC   C14 9925   4.058   0.416   2.908  0.4008  0.1402 -0.1833
  100SAPC  H14A 9926   4.058   0.495   2.982  1.6625  2.1833 -2.2321
  100SAPC  H14B 9927   4.061   0.477   2.819 -0.5589  0.3577 -0.0802
  100SAPC  H14C 9928   3.968   0.357   2.903 -0.6730  1.7390 -0.4969
  100SAPC   C15 9929   4.302   0.415   2.908  0.5735 -0.0516  0.2771
  100SAPC  H15A 9930   4.388   0.354   2.885  0.2958  0.2225 -1.6695
  100SAPC  H15B 9931   4.280   0.477   2.822 -0.9290  0.8156  1.2440
  100SAPC  H15C 9932   4.318   0.482   2.991  0.8376 -0.1394  0.2979
  100SAPC   C11 9933   4.305   0.202   3.119 -0.0623  0.1643 -0.6001
  100SAPC  H11A 9934   4.298   0.174   3.226 -2.0548  1.8842 -0.2072
  100SAPC  H11B 9935   4.386   0.278   3.122  2.5228 -2.4282  0.4555
  100SAPC     P 9936   4.298  -0.042   3.008  0.0020 -0.1944 -0.3794
  100SAPC   O13 9937   4.158  -0.047   2.954  0.8294 -0.0377 -0.9031
  100SAPC   O14 9938   4.393  -0.116   2.922 -1.0072 -0.6985 -0.7876
  100SAPC   O12 9939   4.355   0.101   3.028  0.3540 -0.2466  0.0879
  100SAPC   O11 9940   4.297  -0.093   3.159 -0.3301  0.1363  0.4863
  100SAPC    C1 9941   4.407  -0.161   3.216  0.4813  0.2965 -0.3846
  100SAPC    HA 9942   4.427  -0.264   3.180  0.2426  0.5158 -1.1547
  100SAPC    HB 9943   4.500  -0.100   3.203 -0.4023  2.1883  1.4382
  100SAPC    C2 9944   4.398  -0.169   3.375  0.9722  0.3951  0.1850
  100SAPC    HS 9945   4.311  -0.234   3.401  0.4801  1.0163  0.1170
  100SAPC   O21 9946   4.386  -0.033   3.424 -0.0393  0.0965 -0.0847
  100SAPC   C21 9947   4.293  -0.021   3.518  0.4070 -0.4267 -0.4099
  100SAPC   O22 9948   4.238  -0.109   3.579  0.2306  0.6755  0.2777
  100SAPC   C22 9949   4.274   0.137   3.526 -0.2655 -0.3556 -0.7095
  100SAPC   H2R 9950   4.340   0.182   3.448 -1.0328  0.5069 -0.8836
  100SAPC   H2S 9951   4.169   0.147   3.490  0.4090 -1.7624 -3.2944
  100SAPC    C3 9952   4.532  -0.231   3.424  0.8036  0.2059 -0.4512
  100SAPC    HX 9953   4.626  -0.184   3.388 -0.4676  1.4456 -2.3002
  100SAPC    HY 9954   4.531  -0.332   3.378  1.4599 -0.6264  1.2567
  100SAPC   O31 9955   4.538  -0.224   3.572  0.2070  0.4393 -0.0461
  100SAPC   C31 9956   4.478  -0.318   3.630  0.3509 -0.2228 -0.5093
  100SAPC   O32 9957   4.416  -0.409   3.583  0.1304  0.7395 -0.0550
  100SAPC   C32 9958   4.481  -0.293   3.785  0.1371 -0.2699 -0.3899
  100SAPC   H2X 9959   4.399  -0.221   3.804 -1.4105 -1.8731 -0.6826
  100SAPC   H2Y 9960   4.583  -0.254   3.802  0.2535 -1.1949  1.2872
  100SAPC   C23 9961   4.306   0.195   3.662 -0.7482  0.0491  0.2084
  100SAPC   H3R 9962   4.268   0.135   3.747  0.0153 -0.6454  0.0660
  100SAPC   H3S 9963   4.252   0.292   3.670 -0.5540  0.2320 -0.5579
  100SAPC   C24 9964   4.462   0.219   3.670  0.5144  0.1553 -0.7344
  100SAPC   H4R 9965   4.490   0.312   3.725  1.9531 -1.2578  1.0519
  100SAPC   H4S 9966   4.502   0.244   3.569  0.2796  1.8049 -0.4436
  100SAPC   C25 9967   4.533   0.103   3.729 -0.5411  1.0681 -0.2450
  100SAPC   H5R 9968   4.562   0.027   3.655 -2.7367 -1.7130  1.5291
  100SAPC   C26 9969   4.536   0.057   3.851 -0.4753 -0.1973 -0.3512
  100SAPC   H6R 9970   4.584  -0.041   3.867  2.2411  1.1060  0.1558
  100SAPC   C27 9971   4.487   0.122   3.979  0.2584  0.3526 -0.2659
  100SAPC   H7R 9972   4.450   0.223   3.951 -2.6719 -1.0829 -2.1057
  100SAPC   H7S 9973   4.571   0.131   4.051  0.9229 -1.5351 -0.7555
  100SAPC   C28 9974   4.369   0.035   4.029  0.6375  0.5178 -0.2565
  100SAPC   H8R 9975   4.314  -0.024   3.954  0.8287 -2.3500  1.6998
  100SAPC   C29 9976   4.329   0.041   4.158  0.5094  0.1742 -0.0560
  100SAPC   H9R 9977   4.236  -0.014   4.183 -0.1342  2.1049  2.1294
  100SAPC  C210 9978   4.391   0.122   4.273 -0.3862 -0.1031  0.3146
  100SAPC  H10R 9979   4.323   0.191   4.328 -1.0693 -1.0987  0.7543
  100SAPC  H10S 9980   4.472   0.189   4.236  2.1613 -2.7499  0.7719
  100SAPC  C211 9981   4.456   0.025   4.376  0.7699 -0.0289 -0.6795
  100SAPC  H11R 9982   4.511  -0.057   4.329  0.5997  0.2466 -1.3667
  100SAPC  C212 9983   4.446   0.035   4.516 -0.0590  0.1064  0.3525
  100SAPC  H12R 9984   4.511  -0.040   4.563  3.0996  0.1179 -3.4435
  100SAPC  C213 9985   4.363   0.125   4.596 -0.2590 -0.5492  0.0025
  100SAPC  H13R 9986   4.295   0.068   4.663 -1.2979 -0.4029 -0.9078
  100SAPC  H13S 9987   4.297   0.178   4.524  1.4985  2.6518  0.5661
  100SAPC  C214 9988   4.446   0.234   4.656 -0.3356  0.0782  0.1833
  100SAPC  H14R 9989   4.502   0.290   4.579  1.6318 -1.1735  0.6191
  100SAPC  C215 9990   4.470   0.253   4.792  0.6586 -0.5366  0.3779
  100SAPC  H15R 9991   4.525   0.343   4.823  2.4092 -0.3173 -2.8933
  100SAPC  C216 9992   4.400   0.193   4.905  0.0360  0.0983  0.3414
  100SAPC  H16R 9993   4.473   0.185   4.989 -0.2666  0.1485  0.6113
  100SAPC  H16S 9994   4.362   0.091   4.887  0.3195 -0.0980  0.8301
  100SAPC  C217 9995   4.281   0.266   4.971 -0.4357 -0.2589 -0.0872
  100SAPC  H17R 9996   4.228   0.319   4.890  2.1860  3.4041  0.3273
  100SAPC  H17S 9997   4.315   0.350   5.035 -2.5216  1.0119 -0.5436
  100SAPC  C218 9998   4.187   0.180   5.048 -0.3935 -0.7188 -0.6440
  100SAPC  H18R 9999   4.215   0.074   5.028 -0.8581 -1.1785  0.9806
  100SAPC  H18S10000   4.082   0.180   5.011 -0.1559 -2.7832 -1.4921
  100SAPC  C21910001   4.176   0.219   5.194  0.2189  0.1868 -0.1928
  100SAPC  H19R10002   4.109   0.305   5.212  0.3196  0.3248 -0.4685
  100SAPC  H19S10003   4.279   0.221   5.236  0.8802 -0.5811 -1.6917
  100SAPC  C22010004   4.133   0.101   5.282  0.5786 -0.0589 -0.5655
  100SAPC  H20R10005   4.118   0.127   5.388  1.5650 -1.7111  0.0165
  100SAPC  H20S10006   4.217   0.029   5.290 -0.0135 -0.8175 -0.9398
  100SAPC  H20T10007   4.040   0.053   5.244 -0.3041  2.7618 -2.2939
  100SAPC   C3310008   4.449  -0.420   3.868 -0.2261  0.3732 -0.6538
  100SAPC   H3X10009   4.511  -0.495   3.814  0.6084  0.7656 -0.2700
  100SAPC   H3Y10010   4.343  -0.452   3.875  0.4785 -1.8804  0.9577
  100SAPC   C3410011   4.493  -0.408   4.016 -0.3792  0.3300  0.0228
  100SAPC   H4X10012   4.470  -0.505   4.065 -1.6441  0.0374 -1.0947
  100SAPC   H4Y10013   4.436  -0.332   4.073 -1.7232 -1.3810  1.0375
  100SAPC   C3510014   4.642  -0.381   4.037 -0.6124 -0.2749 -0.7884
  100SAPC   H5X10015   4.663  -0.274   4.014  1.9213 -0.7568 -1.0564
  100SAPC   H5Y10016   4.705  -0.454   3.981 -0.3836  0.5379 -1.6056
  100SAPC   C3610017   4.683  -0.416   4.183  0.0222  0.1156  0.6726
  100SAPC   H6X10018   4.794  -0.406   4.182 -0.0321  0.7878 -0.6083
  100SAPC   H6Y10019   4.667  -0.521   4.213  0.6870  0.5667  2.8157
  100SAPC   C3710020   4.620  -0.325   4.294 -0.2717  0.1216  0.2809
  100SAPC   H7X10021   4.509  -0.331   4.300 -0.4005  0.0594 -1.5041
  100SAPC   H7Y10022   4.652  -0.224   4.260 -0.8782  0.9038  1.9042
  100SAPC   C3810023   4.688  -0.353   4.428  1.0605  0.0934  0.4646
  100SAPC   H8X10024   4.796  -0.352   4.405  0.8988  0.5120 -0.3340
  100SAPC   H8Y10025   4.653  -0.455   4.455 -1.2744  0.8909  0.7417
  100SAPC   C3910026   4.642  -0.244   4.528 -0.7294  0.0019 -0.4398
  100SAPC   H9X10027   4.531  -0.243   4.537 -0.9803 -0.8909 -2.7360
  100SAPC   H9Y10028   4.673  -0.147   4.485  2.4808 -0.8269 -0.2259
  100SAPC  C31010029   4.697  -0.272   4.673 -0.5537 -0.0204  0.2292
  100SAPC  H10X10030   4.806  -0.249   4.675 -0.2394 -1.4922  0.9698
  100SAPC  H10Y10031   4.660  -0.373   4.698 -1.8805  0.5605  0.6900
  100SAPC  C31110032   4.634  -0.166   4.768  0.1920 -0.2520  1.0050
  100SAPC  H11X10033   4.523  -0.174   4.766  0.1749  0.1335 -0.7004
  100SAPC  H11Y10034   4.670  -0.064   4.741  0.5256 -0.6864 -0.2215
  100SAPC  C31210035   4.679  -0.191   4.910  0.5511  0.0265 -0.2060
  100SAPC  H12X10036   4.789  -0.176   4.914  0.7464 -1.4743  1.6366
  100SAPC  H12Y10037   4.667  -0.298   4.938  3.6829 -0.0526  1.2764
  100SAPC  C31310038   4.596  -0.113   5.010 -0.5803 -0.6613 -0.7241
  100SAPC  H13X10039   4.487  -0.126   4.998 -0.6843 -0.8540  0.3371
  100SAPC  H13Y10040   4.624  -0.007   4.995 -0.4753 -0.9497 -2.8355
  100SAPC  C31410041   4.622  -0.166   5.158 -0.0287 -0.2733 -0.3896
  100SAPC  H14X10042   4.731  -0.186   5.163  0.2809  1.4135  0.0733
  100SAPC  H14Y10043   4.562  -0.259   5.167 -0.5109  0.1202  0.6136
  100SAPC  C31510044   4.567  -0.069   5.265 -0.2786 -0.2918  0.2583
  100SAPC  H15X10045   4.458  -0.063   5.242 -0.1030 -0.5367 -0.7024
  100SAPC  H15Y10046   4.612   0.032   5.254  2.0201 -1.3859 -1.0148
  100SAPC  C31610047   4.582  -0.110   5.412  0.1466 -1.0302 -0.6476
  100SAPC  H16X10048   4.689  -0.104   5.440  0.1585  0.2310 -0.9040
  100SAPC  H16Y10049   4.552  -0.217   5.422 -0.0727 -0.9466 -0.4070
  100SAPC  C31710050   4.490  -0.019   5.504  0.6136 -0.1052  0.3592
  100SAPC  H17X10051   4.516  -0.061   5.604 -2.3110 -0.2681  1.1564
  100SAPC  H17Y10052   4.389  -0.055   5.476  0.3484  0.6118  0.3809
  100SAPC  C31810053   4.512   0.131   5.492  0.2501 -0.3172  0.2286
  100SAPC  H18X10054   4.455   0.170   5.405  0.4838  2.4990  1.2616
  100SAPC  H18Y10055   4.621   0.141   5.478  0.7318 -2.5266  1.8740
  100SAPC  H18Z10056   4.472   0.196   5.573  0.4976 -0.4012  0.4191
  101OSM      N10057   1.534   4.080   7.748  0.1285 -0.3305  0.3872
  101OSM    C1510058   1.518   3.939   7.690  0.4100  0.0094 -0.2824
  101OSM   H15A10059   1.416   3.905   7.692  0.4739 -0.1917  1.4076
  101OSM   H15B10060   1.566   3.874   7.762  0.0972 -0.3760 -0.4227
  101OSM   H15C10061   1.559   3.914   7.593 -1.8269 -0.5619 -1.1302
  101OSM    C1410062   1.468   4.178   7.649 -0.7966  0.3071 -0.8741
  101OSM   H14A10063   1.537   4.198   7.569 -0.4859 -0.5586 -0.8295
  101OSM   H14B10064   1.454   4.272   7.702 -1.9440  0.1566 -0.8934
  101OSM   H14C10065   1.367   4.153   7.621 -1.8455  2.5149  0.5729
  101OSM    C1310066   1.474   4.082   7.884 -0.0077  0.3517 -0.0513
  101OSM   H13A10067   1.501   4.001   7.950 -0.8118  1.7320  2.0896
  101OSM   H13B10068   1.368   4.064   7.875 -0.1503  0.6052  0.9495
  101OSM   H13C10069   1.485   4.174   7.939  0.7391  0.2168  0.0411
  101OSM    C1210070   1.682   4.115   7.763  0.3559  0.7251  0.3447
  101OSM   H12A10071   1.715   4.053   7.845 -2.8482 -1.6531  0.0312
  101OSM   H12B10072   1.678   4.214   7.805 -1.5217  0.0316  1.9550
  101OSM    C1110073   1.770   4.114   7.635  0.2214 -0.3241 -0.1572
  101OSM   H11A10074   1.759   4.013   7.590  0.4621 -0.9899  1.2311
  101OSM   H11B10075   1.877   4.125   7.663  0.0949  0.4098  0.0651
  101OSM      P10076   1.764   4.367   7.568 -0.3600 -0.3767 -0.0806
  101OSM    O1310077   1.650   4.439   7.508 -0.1769  0.2410 -0.5721
  101OSM    O1410078   1.792   4.394   7.713  0.3274 -0.0749 -0.7986
  101OSM    O1110079   1.895   4.396   7.477  0.0459 -0.4084 -0.0335
  101OSM    O1210080   1.738   4.213   7.539  0.0073 -0.3764  0.2361
  101OSM    C1S10081   1.865   4.385   7.337  0.5515  0.3848 -0.0398
  101OSM    H1S10082   1.777   4.321   7.313  0.1962  1.3546 -1.4172
  101OSM    H1T10083   1.943   4.327   7.284  1.6960  1.8014  0.0559
  101OSM     NF10084   1.850   4.496   7.123 -0.0671 -0.1794  0.5886
  101OSM    HNF10085   1.941   4.507   7.086  0.1926  1.4893  1.5885
  101OSM    C2S10086   1.843   4.516   7.271 -0.7183 -0.2526  1.1725
  101OSM    H2S10087   1.743   4.553   7.302 -0.2477  2.0447  0.1672
  101OSM    C3S10088   1.939   4.636   7.315 -1.0204  0.0982 -0.1557
  101OSM    H3S10089   2.038   4.625   7.264 -1.1034 -0.5988 -0.1779
  101OSM     O310090   1.956   4.653   7.453  0.2556 -0.2991 -0.3334
  101OSM    HO310091   1.925   4.575   7.499  2.7213 -0.7951  0.6570
  101OSM    C4S10092   1.892   4.767   7.258 -0.5552  0.6879 -0.4759
  101OSM    H4S10093   1.789   4.782   7.295 -0.7018 -2.0145  0.4659
  101OSM    C5S10094   1.960   4.850   7.179 -0.0841  0.1671  0.6029
  101OSM    H5S10095   2.064   4.827   7.152 -0.5895  0.6947 -2.0833
  101OSM    C6S10096   1.910   4.983   7.125  0.0121  0.0467  0.1232
  101OSM    H6S10097   1.988   5.056   7.093 -0.3652  0.6974  0.6655
  101OSM    H6T10098   1.861   5.030   7.213  2.0375  1.1566  0.7213
  101OSM    C7S10099   1.817   4.943   7.009 -0.3821  0.1615  0.7624
  101OSM    H7S10100   1.717   4.908   7.042 -0.0053 -0.3206  1.4079
  101OSM    H7T10101   1.863   4.872   6.936 -3.0284 -1.3615  0.4298
  101OSM    C8S10102   1.790   5.066   6.925 -1.0645 -0.4692 -0.2076
  101OSM    H8S10103   1.872   5.087   6.852  0.7825  2.5874  2.5097
  101OSM    H8T10104   1.780   5.148   6.998  2.6941 -0.5922  0.6409
  101OSM    C9S10105   1.662   5.053   6.839  0.2427 -0.0341 -0.5095
  101OSM    H9S10106   1.632   5.154   6.803 -2.4581 -0.7954 -0.5534
  101OSM    H9T10107   1.573   5.038   6.904 -0.5809  1.1108 -1.3279
  101OSM   C10S10108   1.685   4.961   6.720  0.1992  0.2318 -0.0877
  101OSM   H10S10109   1.725   4.860   6.744 -0.2039 -0.2096 -1.2219
  101OSM   H10T10110   1.762   5.019   6.664 -1.9716  3.4864 -0.0284
  101OSM   C11S10111   1.570   4.945   6.624 -0.0815  0.0842  0.1152
  101OSM   H11S10112   1.541   5.041   6.578  1.4536  0.0746 -0.9284
  101OSM   H11T10113   1.486   4.906   6.685  2.1624 -2.3356  1.9059
  101OSM   C12S10114   1.607   4.851   6.504  0.5624  1.0254  0.0440
  101OSM   H12S10115   1.606   4.748   6.547  2.7844  0.5783 -0.8211
  101OSM   H12T10116   1.704   4.885   6.464  1.0305 -1.3109 -0.9829
  101OSM   C13S10117   1.504   4.877   6.393 -0.4546 -0.5640 -0.3853
  101OSM   H13S10118   1.506   4.978   6.348  3.4279  0.0137  0.6715
  101OSM   H13T10119   1.405   4.864   6.440 -0.5197  0.0084 -0.3612
  101OSM   C14S10120   1.511   4.778   6.274 -0.8369  0.3608  0.3377
  101OSM   H14S10121   1.494   4.674   6.310 -1.6413  0.9230  1.6601
  101OSM   H14T10122   1.610   4.760   6.227  0.8824 -0.6015  3.9351
  101OSM   C15S10123   1.413   4.810   6.160  0.5132  0.0540  0.4467
  101OSM   H15S10124   1.423   4.919   6.142 -2.3316  0.1715 -0.8542
  101OSM   H15T10125   1.307   4.790   6.184  0.5852 -0.3046  0.4766
  101OSM   C16S10126   1.448   4.739   6.027  0.2756 -0.4270  0.2521
  101OSM   H16S10127   1.433   4.633   6.058  1.0693 -0.1633  1.6279
  101OSM   H16T10128   1.554   4.763   6.004  0.3196  1.0962  1.8466
  101OSM   C17S10129   1.359   4.777   5.913  0.9452  0.4267 -0.0540
  101OSM   H17S10130   1.418   4.750   5.822  0.7891 -2.3477  0.5665
  101OSM   H17T10131   1.335   4.885   5.925 -0.3974  0.1954 -0.5133
  101OSM   C18S10132   1.229   4.689   5.907 -0.0876 -0.2644 -0.3892
  101OSM   H18S10133   1.227   4.624   5.998  0.1648  0.3898  0.0953
  101OSM   H18T10134   1.235   4.611   5.828  3.4537 -1.1836  0.6071
  101OSM   H18U10135   1.140   4.754   5.894  0.8915  1.3195  0.5429
  101OSM    C1F10136   1.753   4.422   7.051  0.1650 -0.8216 -0.4692
  101OSM     OF10137   1.652   4.385   7.102 -0.2419  0.0565 -0.2872
  101OSM    C2F10138   1.789   4.390   6.916 -0.1166  0.0820  0.0175
  101OSM    H2F10139   1.889   4.343   6.909  0.1163 -0.0226  2.8404
  101OSM    H2G10140   1.797   4.487   6.862 -0.2033 -0.1352 -0.3805
  101OSM    C3F10141   1.690   4.294   6.846 -0.6347 -0.0932  0.1247
  101OSM    H3F10142   1.589   4.340   6.852  0.1055  1.5248  0.7649
  101OSM    H3G10143   1.690   4.195   6.896 -2.1508 -0.4120 -0.4407
  101OSM    C4F10144   1.718   4.268   6.702  0.1094 -0.0244  0.0151
  101OSM    H4F10145   1.644   4.195   6.664  2.1501 -1.9800 -0.3992
  101OSM    H4G10146   1.809   4.206   6.690 -0.4827 -1.1671  1.1604
  101OSM    C5F10147   1.713   4.390   6.610  0.0526 -0.1768  0.1461
  101OSM    H5F10148   1.769   4.471   6.662  0.8794  0.2456 -1.3350
  101OSM    H5G10149   1.611   4.434   6.602 -0.0063  0.0650  1.8883
  101OSM    C6F10150   1.755   4.367   6.468 -0.1810 -0.5510 -0.2556
  101OSM    H6F10151   1.678   4.305   6.418 -0.1879  0.8848 -2.1455
  101OSM    H6G10152   1.849   4.308   6.457 -0.4073 -0.5617 -2.4999
  101OSM    C7F10153   1.763   4.494   6.373 -0.1416  0.3855 -0.9102
  101OSM    H7F10154   1.814   4.570   6.437 -0.9468 -0.7268  1.1173
  101OSM    H7G10155   1.660   4.525   6.347 -0.0722  0.0478 -1.6184
  101OSM    C8F10156   1.852   4.471   6.250 -0.1315 -0.6070 -0.0208
  101OSM    H8F10157   1.784   4.403   6.194 -0.2003  0.4283 -1.2496
  101OSM    H8G10158   1.946   4.423   6.282  0.8105  0.9274 -0.3874
  101OSM    C9F10159   1.884   4.597   6.170  0.0436  0.0482  0.5943
  101OSM    H9F10160   1.913   4.679   6.238  1.8543 -0.7947  0.8867
  101OSM   C10F10161   1.861   4.617   6.036 -0.5670  0.2284 -0.5484
  101OSM   H10F10162   1.890   4.714   5.993  0.8075  0.2691  0.4220
  101OSM   C11F10163   1.803   4.518   5.940  0.0844  0.4874  0.2480
  101OSM   H11F10164   1.697   4.515   5.972  0.0400  1.2080  0.1854
  101OSM   H11G10165   1.847   4.420   5.966  0.2422  0.3705 -0.4413
  101OSM   C12F10166   1.808   4.554   5.790 -0.0105  0.1285 -0.2713
  101OSM   H12F10167   1.913   4.534   5.760 -0.3157 -1.0243 -0.6481
  101OSM   H12G10168   1.789   4.663   5.784  0.9342  0.3821  0.8973
  101OSM   C13F10169   1.719   4.464   5.709  0.3065  0.0905  0.8043
  101OSM   H13F10170   1.738   4.356   5.725 -0.7317 -0.0669  1.0373
  101OSM   H13G10171   1.750   4.475   5.602 -2.3192 -0.3886 -0.0707
  101OSM   C14F10172   1.570   4.474   5.730 -0.2420  0.6421 -0.5232
  101OSM   H14F10173   1.549   4.581   5.749  0.6059  0.5711  0.9942
  101OSM   H14G10174   1.538   4.422   5.823  1.2690 -0.2181 -0.4478
  101OSM   C15F10175   1.486   4.429   5.602 -0.6943 -0.4443  0.5010
  101OSM   H15F10176   1.545   4.347   5.556 -0.4867 -0.1408  0.2215
  101OSM   H15G10177   1.483   4.515   5.532 -0.3398 -0.5137  0.4010
  101OSM   C16F10178   1.352   4.378   5.636  0.9366  0.2886 -0.6414
  101OSM   H16F10179   1.289   4.466   5.659 -0.5476 -0.3104 -2.1955
  101OSM   H16G10180   1.360   4.309   5.723  1.0790 -0.2573 -1.0879
  101OSM   C17F10181   1.290   4.304   5.521 -0.2707  0.1083  0.2371
  101OSM   H17F10182   1.343   4.207   5.505  1.0851  0.6898  1.0147
  101OSM   H17G10183   1.291   4.358   5.424 -1.6416  0.5704  0.4565
  101OSM   C18F10184   1.145   4.268   5.556 -0.6704 -0.8068  0.2887
  101OSM   H18F10185   1.105   4.194   5.483  1.4374 -0.1543 -1.6431
  101OSM   H18G10186   1.076   4.355   5.554 -1.6806 -1.5600  1.0729
  101OSM   H18H10187   1.141   4.212   5.651 -0.0065 -1.0019  0.2037
  102OSM      N10188   0.843   4.237   7.663 -0.2193 -0.1399 -0.0210
  102OSM    C1510189   0.951   4.209   7.761 -0.5259  0.2025  0.1761
  102OSM   H15A10190   0.966   4.282   7.840  0.3007  2.2827 -1.7860
  102OSM   H15B10191   1.046   4.212   7.709 -0.3943  2.6456  0.4300
  102OSM   H15C10192   0.950   4.105   7.788 -1.8795  0.5926  1.8235
  102OSM    C1410193   0.840   4.131   7.560  0.2459  0.4221 -0.0348
  102OSM   H14A10194   0.917   4.148   7.486  1.0901  0.3189  0.8094
  102OSM   H14B10195   0.752   4.140   7.498  0.5013 -2.4774 -0.9500
  102OSM   H14C10196   0.846   4.031   7.599  1.8226  0.8103  0.7964
  102OSM    C1310197   0.719   4.226   7.748  0.5578 -0.4201  0.5863
  102OSM   H13A10198   0.628   4.248   7.695  1.5505  0.5127 -0.8194
  102OSM   H13B10199   0.711   4.288   7.836  1.7668  0.3790  0.1700
  102OSM   H13C10200   0.703   4.125   7.783 -0.5121 -1.0705 -1.6166
  102OSM    C1210201   0.858   4.380   7.609  0.2550 -0.1230  0.4171
  102OSM   H12A10202   0.881   4.448   7.689 -3.0136  1.3082  0.2916
  102OSM   H12B10203   0.763   4.415   7.573  0.7320  3.4132  2.1434
  102OSM    C1110204   0.960   4.394   7.495  0.1716 -0.7362 -0.5998
  102OSM   H11A10205   0.954   4.495   7.448 -0.7304 -1.8151 -2.9551
  102OSM   H11B10206   0.931   4.328   7.411 -1.3891 -1.3892  0.4196
  102OSM      P10207   1.192   4.478   7.590 -0.0700  0.2501 -0.1431
  102OSM    O1310208   1.110   4.575   7.665 -0.3020 -0.0573 -0.5944
  102OSM    O1410209   1.304   4.410   7.670 -0.1841 -0.7403  0.5547
  102OSM    O1110210   1.250   4.546   7.456  0.3440  0.4547  0.1669
  102OSM    O1210211   1.096   4.365   7.541 -0.4723 -0.3042  0.3789
  102OSM    C1S10212   1.295   4.460   7.354  0.0906  0.1881 -0.0315
  102OSM    H1S10213   1.224   4.380   7.323  3.3417 -2.0688 -2.4157
  102OSM    H1T10214   1.377   4.393   7.388  0.0758  0.0701 -0.2252
  102OSM     NF10215   1.375   4.434   7.131  0.1896  0.3145  0.3679
  102OSM    HNF10216   1.474   4.419   7.124 -0.0664 -1.7857  0.7133
  102OSM    C2S10217   1.333   4.534   7.228 -0.5505 -0.4513  0.6643
  102OSM    H2S10218   1.238   4.580   7.193  0.5319  1.8220  0.5389
  102OSM    C3S10219   1.427   4.652   7.249 -0.4028  0.0515  0.1976
  102OSM    H3S10220   1.526   4.609   7.276  0.2814  0.7670 -1.0604
  102OSM     O310221   1.389   4.744   7.352 -0.0631 -0.7932 -0.1315
  102OSM    HO310222   1.304   4.710   7.382 -1.1430  0.8826 -1.0710
  102OSM    C4S10223   1.435   4.724   7.120 -0.3049  0.0706  1.0873
  102OSM    H4S10224   1.521   4.685   7.063 -0.7416 -0.5823  0.8653
  102OSM    C5S10225   1.351   4.823   7.081  0.1174 -0.1225  0.2899
  102OSM    H5S10226   1.265   4.832   7.150 -0.5816 -3.3816  0.0019
  102OSM    C6S10227   1.343   4.909   6.959 -0.9125 -0.1126 -0.4736
  102OSM    H6S10228   1.429   4.875   6.897 -0.3354  1.3198 -0.5043
  102OSM    H6T10229   1.358   5.015   6.988 -2.6161  1.2912 -4.0270
  102OSM    C7S10230   1.207   4.895   6.895 -0.6420  0.2280 -0.6605
  102OSM    H7S10231   1.188   4.977   6.822 -1.3275  1.7742  1.1457
  102OSM    H7T10232   1.141   4.914   6.983 -0.0752  0.6802 -0.3239
  102OSM    C8S10233   1.174   4.756   6.835 -0.3674 -0.1923 -0.0179
  102OSM    H8S10234   1.066   4.738   6.820 -0.3937 -0.6610  0.6717
  102OSM    H8T10235   1.200   4.683   6.915  0.1836 -1.2664 -1.1275
  102OSM    C9S10236   1.248   4.716   6.706  0.4022  0.5855  0.2864
  102OSM    H9S10237   1.358   4.718   6.715  0.6714  0.2410 -2.0975
  102OSM    H9T10238   1.216   4.786   6.625 -0.5075 -1.1806 -0.9497
  102OSM   C10S10239   1.220   4.565   6.654 -0.4327  0.4893  0.0684
  102OSM   H10S10240   1.111   4.559   6.672 -0.2711 -0.1036  0.8932
  102OSM   H10T10241   1.269   4.495   6.725 -2.1210 -2.4282 -1.4532
  102OSM   C11S10242   1.264   4.566   6.500  0.3396 -0.5465 -0.7053
  102OSM   H11S10243   1.369   4.603   6.498  0.3496 -0.3800  1.2959
  102OSM   H11T10244   1.208   4.644   6.444 -1.7947  0.8491  3.0505
  102OSM   C12S10245   1.257   4.433   6.426  0.1746 -0.0040 -0.4185
  102OSM   H12S10246   1.148   4.417   6.414 -0.9029  3.0124  3.4538
  102OSM   H12T10247   1.300   4.349   6.485 -3.0563 -1.0981  0.5452
  102OSM   C13S10248   1.334   4.429   6.294 -0.3904 -0.1273 -0.4149
  102OSM   H13S10249   1.441   4.417   6.319 -0.8861  0.4949  2.2704
  102OSM   H13T10250   1.318   4.526   6.243 -0.1990 -0.2756 -0.7582
  102OSM   C14S10251   1.297   4.323   6.189  0.6100 -0.6684 -0.0816
  102OSM   H14S10252   1.375   4.341   6.112  0.8743  0.9072  0.5103
  102OSM   H14T10253   1.193   4.342   6.155  0.3592  3.5902  2.3327
  102OSM   C15S10254   1.310   4.182   6.238 -0.2179  0.0974 -0.3180
  102OSM   H15S10255   1.281   4.110   6.158  3.7259 -1.0694 -0.9250
  102OSM   H15T10256   1.249   4.169   6.330 -0.2531 -0.4216 -0.4132
  102OSM   C16S10257   1.456   4.150   6.274  0.6794 -0.5930 -0.2981
  102OSM   H16S10258   1.507   4.223   6.339  1.7489  0.2410 -1.9959
  102OSM   H16T10259   1.520   4.155   6.183 -1.0714  1.5815 -1.5085
  102OSM   C17S10260   1.470   4.015   6.343 -0.2840 -0.5051  0.6347
  102OSM   H17S10261   1.448   3.933   6.271  1.9000 -0.8922  0.3328
  102OSM   H17T10262   1.394   4.006   6.423 -0.8637 -2.3152 -0.0787
  102OSM   C18S10263   1.611   3.983   6.399 -0.6855  0.3852 -0.0952
  102OSM   H18S10264   1.612   3.886   6.453 -0.5522 -1.4188 -3.1381
  102OSM   H18T10265   1.646   4.054   6.477  2.9944  0.2741 -1.4281
  102OSM   H18U10266   1.687   3.994   6.319  0.3784  1.3326  1.0022
  102OSM    C1F10267   1.289   4.358   7.066  0.3896 -0.4751 -0.3901
  102OSM     OF10268   1.173   4.368   7.103 -0.0014 -0.1543  0.1691
  102OSM    C2F10269   1.327   4.275   6.949  0.2819  0.2293  0.0337
  102OSM    H2F10270   1.399   4.200   6.990  0.6448  0.4322 -0.2274
  102OSM    H2G10271   1.378   4.337   6.872 -1.8405  2.0791  0.0050
  102OSM    C3F10272   1.201   4.208   6.881 -0.1156 -0.2574 -0.0963
  102OSM    H3F10273   1.130   4.281   6.837 -0.1508  0.0534  0.4704
  102OSM    H3G10274   1.141   4.146   6.950  0.2562 -0.7140 -0.1801
  102OSM    C4F10275   1.243   4.109   6.770 -0.3878 -0.0246  0.8382
  102OSM    H4F10276   1.305   4.155   6.691 -1.4383  0.3314  0.2045
  102OSM    H4G10277   1.146   4.082   6.725 -0.1578  0.2687  0.1555
  102OSM    C5F10278   1.332   3.985   6.819  0.4423 -0.2599 -0.0644
  102OSM    H5F10279   1.300   3.886   6.780  1.4624  0.1984 -2.1974
  102OSM    H5G10280   1.331   3.977   6.930  0.6332 -1.3079 -0.1275
  102OSM    C6F10281   1.481   3.998   6.778  0.4480 -0.3608  0.7656
  102OSM    H6F10282   1.512   4.104   6.790  0.4472  0.0157 -1.9888
  102OSM    H6G10283   1.489   3.978   6.669 -0.2249 -1.8696  0.9691
  102OSM    C7F10284   1.569   3.903   6.855  0.1383  0.3785  0.3464
  102OSM    H7F10285   1.535   3.923   6.959 -0.8488  0.3092  0.0413
  102OSM    H7G10286   1.673   3.943   6.849 -0.5564  2.2990  0.5387
  102OSM    C8F10287   1.578   3.760   6.797 -0.6125 -0.3870 -0.4996
  102OSM    H8F10288   1.627   3.762   6.697  0.9061  0.5079  0.2317
  102OSM    H8G10289   1.472   3.733   6.777 -1.5190  2.3786  0.2169
  102OSM    C9F10290   1.629   3.665   6.902 -0.0253  0.3360  1.2891
  102OSM    H9F10291   1.551   3.640   6.976  1.1159 -0.1686  2.3461
  102OSM   C10F10292   1.747   3.608   6.910  0.2764  0.8586  0.2907
  102OSM   H10F10293   1.776   3.545   6.995 -0.8800 -1.4219 -0.9366
  102OSM   C11F10294   1.867   3.630   6.819  0.4055 -0.0185  0.5776
  102OSM   H11F10295   1.968   3.616   6.862  0.7244  0.1657 -0.0867
  102OSM   H11G10296   1.870   3.739   6.798  1.3602 -0.0835  0.3202
  102OSM   C12F10297   1.867   3.567   6.675 -0.1834  0.9357  0.4334
  102OSM   H12F10298   1.767   3.595   6.635  0.5601  1.2741 -1.2572
  102OSM   H12G10299   1.882   3.457   6.672  0.0270  0.9726  0.1641
  102OSM   C13F10300   1.963   3.630   6.584  0.5659  0.0732 -0.0369
  102OSM   H13F10301   1.946   3.737   6.558 -1.3806 -0.3647 -0.7054
  102OSM   H13G10302   1.952   3.581   6.485  2.2209  1.0740 -0.7766
  102OSM   C14F10303   2.106   3.625   6.631  0.0287  0.0648 -0.2859
  102OSM   H14F10304   2.115   3.520   6.664  1.8552  0.3499  0.2831
  102OSM   H14G10305   2.120   3.700   6.712 -0.9896  0.7411 -0.7098
  102OSM   C15F10306   2.216   3.667   6.531 -0.1335  0.3732  0.4234
  102OSM   H15F10307   2.182   3.758   6.475 -0.5405 -0.4663 -0.7361
  102OSM   H15G10308   2.246   3.589   6.458 -0.4646 -3.6513  4.2333
  102OSM   C16F10309   2.357   3.708   6.582  0.2643  0.3726  0.0820
  102OSM   H16F10310   2.342   3.751   6.684 -2.2059  0.2388 -0.1591
  102OSM   H16G10311   2.406   3.779   6.512  3.1424 -1.6988 -0.1557
  102OSM   C17F10312   2.462   3.598   6.589  0.1526  0.1504 -0.1877
  102OSM   H17F10313   2.482   3.565   6.485  0.9976  1.7029 -0.5548
  102OSM   H17G10314   2.404   3.530   6.655 -1.8534  1.4093 -0.5438
  102OSM   C18F10315   2.591   3.637   6.652  0.3982 -0.0035 -0.2403
  102OSM   H18F10316   2.563   3.683   6.749  1.2555  1.4603 -0.6593
  102OSM   H18G10317   2.656   3.702   6.589  2.3017 -0.7230  0.9275
  102OSM   H18H10318   2.653   3.548   6.673  1.2173  0.6798  0.2606
  103OSM      N10319   1.495   0.355   7.668  0.1488  0.0734 -0.0356
  103OSM    C1510320   1.638   0.308   7.673  0.1233  0.2747 -0.9959
  103OSM   H15A10321   1.668   0.285   7.774  3.7358 -0.5359 -2.1241
  103OSM   H15B10322   1.715   0.372   7.631  0.4756  1.0866  0.8034
  103OSM   H15C10323   1.646   0.212   7.625 -3.2140 -1.4142  1.4260
  103OSM    C1410324   1.450   0.350   7.529 -0.3670 -0.1761  0.6458
  103OSM   H14A10325   1.433   0.248   7.495 -0.6745  0.9780 -3.1835
  103OSM   H14B10326   1.523   0.397   7.465 -2.1508 -0.2916 -1.6253
  103OSM   H14C10327   1.361   0.408   7.512 -0.5206 -0.7170 -0.4954
  103OSM    C1310328   1.405   0.265   7.738  0.3208  0.0430 -1.0566
  103OSM   H13A10329   1.409   0.280   7.845  0.5105  2.6096 -1.3709
  103OSM   H13B10330   1.429   0.161   7.720 -0.3494 -0.5168  0.9245
  103OSM   H13C10331   1.305   0.286   7.703  0.3168  1.0888 -0.4599
  103OSM    C1210332   1.480   0.496   7.719 -0.3028 -0.2065  0.2839
  103OSM   H12A10333   1.547   0.554   7.659 -2.2063  0.7985 -0.9699
  103OSM   H12B10334   1.524   0.518   7.816 -0.0756  2.6854 -0.3867
  103OSM    C1110335   1.339   0.561   7.702  0.5181 -0.5416 -0.3201
  103OSM   H11A10336   1.333   0.643   7.776  2.6457 -0.4667 -0.1710
  103OSM   H11B10337   1.262   0.482   7.710  0.8734 -0.7558  1.1223
  103OSM      P10338   1.410   0.722   7.514 -0.2999  0.0169  0.3662
  103OSM    O1310339   1.393   0.843   7.598 -0.3406 -0.6613  1.0193
  103OSM    O1410340   1.546   0.667   7.495  0.7451 -0.3114 -0.5278
  103OSM    O1110341   1.351   0.745   7.366 -0.4573  0.2389  0.2344
  103OSM    O1210342   1.312   0.611   7.567 -0.4719  0.6460 -0.3312
  103OSM    C1S10343   1.300   0.625   7.299 -0.6746  0.3162 -0.2736
  103OSM    H1S10344   1.194   0.612   7.329 -1.0885 -0.5648 -1.9918
  103OSM    H1T10345   1.355   0.532   7.323 -1.3415 -0.5831 -2.0361
  103OSM     NF10346   1.287   0.510   7.093 -0.0738  0.8088  0.1743
  103OSM    HNF10347   1.372   0.464   7.068 -0.9361 -1.3658  0.9921
  103OSM    C2S10348   1.299   0.642   7.143 -0.3122  0.0853 -0.3941
  103OSM    H2S10349   1.216   0.709   7.110  0.6348  1.0744 -0.8338
  103OSM    C3S10350   1.429   0.713   7.097 -0.2605  0.5785 -0.0357
  103OSM    H3S10351   1.510   0.659   7.151 -0.4765 -0.3278 -0.5938
  103OSM     O310352   1.443   0.846   7.134 -0.0541 -0.3221  0.1867
  103OSM    HO310353   1.387   0.843   7.212  0.4872 -0.1735  0.5900
  103OSM    C4S10354   1.459   0.701   6.951 -0.3246 -0.2893  0.4503
  103OSM    H4S10355   1.537   0.627   6.929 -2.0527 -1.3120 -2.9006
  103OSM    C5S10356   1.429   0.794   6.862 -0.3195  0.2205  0.7023
  103OSM    H5S10357   1.383   0.887   6.899 -0.2552  1.2486 -1.6591
  103OSM    C6S10358   1.502   0.793   6.730  0.9351  0.3656  0.3257
  103OSM    H6S10359   1.610   0.809   6.747  0.5415  1.9656  1.6309
  103OSM    H6T10360   1.454   0.868   6.664  1.5352  0.5009  0.0368
  103OSM    C7S10361   1.495   0.661   6.650  0.0782 -0.1005  0.4023
  103OSM    H7S10362   1.389   0.640   6.623 -0.2707 -0.8125  2.1694
  103OSM    H7T10363   1.550   0.581   6.704  1.2802 -0.4437 -1.2324
  103OSM    C8S10364   1.583   0.660   6.521  0.2377 -0.1380 -0.4340
  103OSM    H8S10365   1.691   0.650   6.547 -0.2025  0.1092  1.6263
  103OSM    H8T10366   1.567   0.756   6.467  0.2684  0.5717  0.7764
  103OSM    C9S10367   1.554   0.548   6.418 -0.0786 -0.4768  0.2962
  103OSM    H9S10368   1.445   0.543   6.398 -0.0124  0.2537 -0.2981
  103OSM    H9T10369   1.592   0.448   6.448  0.5611 -0.5985 -0.8467
  103OSM   C10S10370   1.622   0.586   6.283  0.0862 -0.7382  0.2662
  103OSM   H10S10371   1.729   0.591   6.310  0.8444  2.0525 -2.6691
  103OSM   H10T10372   1.584   0.688   6.261 -1.4144 -2.0084 -4.0497
  103OSM   C11S10373   1.592   0.491   6.166  0.0465  0.0280 -0.3675
  103OSM   H11S10374   1.484   0.500   6.141 -1.4731  0.3447  4.9537
  103OSM   H11T10375   1.590   0.382   6.188  1.3065 -0.2466 -1.4851
  103OSM   C12S10376   1.685   0.522   6.046  0.0080  0.5490 -0.6781
  103OSM   H12S10377   1.792   0.505   6.073  0.2411  0.6835 -1.5095
  103OSM   H12T10378   1.696   0.630   6.026  0.8304  0.5812 -0.1239
  103OSM   C13S10379   1.653   0.440   5.919  0.0527  0.1234  0.2627
  103OSM   H13S10380   1.543   0.421   5.919 -0.0730  0.7938  0.9643
  103OSM   H13T10381   1.695   0.340   5.944 -2.9459 -1.2556  0.3366
  103OSM   C14S10382   1.704   0.518   5.801 -0.3385 -0.7542 -0.5321
  103OSM   H14S10383   1.641   0.606   5.779  1.1650  0.8243  1.1146
  103OSM   H14T10384   1.676   0.463   5.709 -1.3161  1.0225 -1.3425
  103OSM   C15S10385   1.850   0.561   5.813 -0.6334 -0.4889 -0.6909
  103OSM   H15S10386   1.903   0.474   5.858  1.2910  0.7133 -0.5249
  103OSM   H15T10387   1.852   0.648   5.882 -7.1808  1.1445 -1.8939
  103OSM   C16S10388   1.905   0.605   5.679 -0.0936 -0.1086 -0.3649
  103OSM   H16S10389   1.865   0.706   5.658  0.4489 -0.1737 -1.8210
  103OSM   H16T10390   1.873   0.521   5.613  1.0485  0.9483 -2.3532
  103OSM   C17S10391   2.061   0.616   5.677  0.2497  0.2026  0.1368
  103OSM   H17S10392   2.105   0.690   5.747 -2.9102  1.4859  0.9021
  103OSM   H17T10393   2.103   0.659   5.583 -0.0771  1.1970  0.4424
  103OSM   C18S10394   2.138   0.487   5.694  0.8343  0.8159  0.2025
  103OSM   H18S10395   2.107   0.422   5.609 -0.7237  0.3653  1.0705
  103OSM   H18T10396   2.124   0.437   5.792  1.5384 -2.1136 -1.0972
  103OSM   H18U10397   2.248   0.501   5.688  0.9168 -0.1381 -0.7685
  103OSM    C1F10398   1.170   0.456   7.086  0.2708 -0.2265 -0.1821
  103OSM     OF10399   1.074   0.529   7.110  0.0536 -0.4361 -0.2040
  103OSM    C2F10400   1.156   0.314   7.044  0.0432 -0.2338  0.1472
  103OSM    H2F10401   1.120   0.261   7.135 -0.8240  2.1728  1.2907
  103OSM    H2G10402   1.256   0.270   7.019  0.7725  0.8410  1.0593
  103OSM    C3F10403   1.057   0.283   6.929  0.1730 -0.0313 -0.0308
  103OSM    H3F10404   0.957   0.308   6.971 -0.7038  1.1675 -2.6243
  103OSM    H3G10405   1.059   0.174   6.908  3.0429  0.1670 -1.2231
  103OSM    C4F10406   1.095   0.339   6.791 -0.6536 -0.7374 -0.1356
  103OSM    H4F10407   1.146   0.437   6.800  1.1616 -1.8080  2.3633
  103OSM    H4G10408   1.003   0.349   6.729 -0.5421  1.1723 -0.0497
  103OSM    C5F10409   1.189   0.236   6.720  0.4543  1.0356  0.3773
  103OSM    H5F10410   1.130   0.142   6.709 -0.2879  1.4818  0.5126
  103OSM    H5G10411   1.267   0.222   6.798 -0.1512  0.9130  0.9575
  103OSM    C6F10412   1.241   0.291   6.587 -0.2464  0.3771 -1.1735
  103OSM    H6F10413   1.312   0.227   6.531 -0.0334 -0.3745 -0.0687
  103OSM    H6G10414   1.279   0.392   6.611 -1.0309 -0.1711  3.2732
  103OSM    C7F10415   1.127   0.310   6.479 -0.0070  0.7271  0.5879
  103OSM    H7F10416   1.040   0.370   6.512  0.3405  0.6801  1.6473
  103OSM    H7G10417   1.078   0.211   6.464  1.1393 -0.1094  2.0123
  103OSM    C8F10418   1.185   0.361   6.343  0.4173  0.3439  0.1117
  103OSM    H8F10419   1.260   0.436   6.378 -2.0662  0.8019  5.6098
  103OSM    H8G10420   1.101   0.413   6.293 -0.3342  0.8010  1.7578
  103OSM    C9F10421   1.256   0.273   6.248  0.3514 -0.3031 -0.2449
  103OSM    H9F10422   1.330   0.209   6.299 -1.0440 -1.0993  0.8572
  103OSM   C10F10423   1.238   0.258   6.115 -0.9095 -0.5115 -0.1579
  103OSM   H10F10424   1.308   0.190   6.064  0.2436  1.4036 -1.2647
  103OSM   C11F10425   1.143   0.343   6.028 -0.1619 -0.1478 -0.3137
  103OSM   H11F10426   1.100   0.435   6.070  0.5074  0.9138 -1.8471
  103OSM   H11G10427   1.062   0.278   5.990 -1.1732  0.8944  0.0261
  103OSM   C12F10428   1.219   0.389   5.897  0.0985 -0.7142  0.3845
  103OSM   H12F10429   1.225   0.310   5.819  1.0182 -0.4439  0.1625
  103OSM   H12G10430   1.325   0.423   5.901 -0.6195  1.7314  0.2669
  103OSM   C13F10431   1.149   0.507   5.829 -0.7096  0.2938 -0.2766
  103OSM   H13F10432   1.107   0.580   5.903  0.8024  0.0752  0.8328
  103OSM   H13G10433   1.071   0.477   5.755 -0.1832 -0.0778 -0.6822
  103OSM   C14F10434   1.245   0.593   5.746 -0.0190 -0.7256 -0.3732
  103OSM   H14F10435   1.325   0.636   5.810 -1.2530  0.8348  0.1842
  103OSM   H14G10436   1.193   0.683   5.708 -1.4751 -1.3149  0.1570
  103OSM   C15F10437   1.312   0.523   5.631 -0.2860  0.3285 -0.1523
  103OSM   H15F10438   1.239   0.449   5.593  0.1545 -0.3598  0.3047
  103OSM   H15G10439   1.395   0.469   5.681 -1.8332 -0.3309  1.8318
  103OSM   C16F10440   1.361   0.626   5.528 -0.3908  0.5447 -0.4386
  103OSM   H16F10441   1.435   0.697   5.571 -0.3487 -0.7816  1.8470
  103OSM   H16G10442   1.273   0.687   5.500 -0.4746  0.7161  0.1859
  103OSM   C17F10443   1.409   0.553   5.408  0.0622  0.1172  0.4947
  103OSM   H17F10444   1.362   0.453   5.397 -1.0920  0.5911  0.8619
  103OSM   H17G10445   1.519   0.542   5.400 -0.0744 -1.5018  0.5375
  103OSM   C18F10446   1.361   0.633   5.278  0.2664 -0.2620 -0.5551
  103OSM   H18F10447   1.402   0.736   5.290  0.8089 -0.3587 -1.4658
  103OSM   H18G10448   1.250   0.629   5.274  0.0954  2.2115 -0.3337
  103OSM   H18H10449   1.405   0.600   5.182  0.6117 -1.8235  0.1246
  104OSM      N10450   1.509   1.254   7.919 -0.5309 -0.1383 -0.4186
  104OSM    C1510451   1.582   1.131   7.988  0.4123 -0.6921  0.5482
  104OSM   H15A10452   1.684   1.132   7.954 -0.0954  0.6227 -1.1065
  104OSM   H15B10453   1.536   1.038   7.960  0.0998 -0.5730  0.6497
  104OSM   H15C10454   1.555   1.129   8.093  0.1528  1.2837  0.5588
  104OSM    C1410455   1.364   1.248   7.965 -0.4236  0.3587 -0.1976
  104OSM   H14A10456   1.303   1.330   7.932 -3.1884 -1.0988  0.9640
  104OSM   H14B10457   1.354   1.256   8.072 -0.9265 -0.0225 -0.2131
  104OSM   H14C10458   1.304   1.161   7.941  0.0058 -0.6431  2.0643
  104OSM    C1310459   1.561   1.380   7.986  0.6199 -0.0482 -0.1155
  104OSM   H13A10460   1.577   1.378   8.093  0.2990  2.0649  0.0126
  104OSM   H13B10461   1.500   1.466   7.965 -0.9809 -1.1424 -0.1122
  104OSM   H13C10462   1.658   1.395   7.940  1.5470 -2.6380  0.7970
  104OSM    C1210463   1.515   1.254   7.770 -0.4738 -0.1826 -0.2528
  104OSM   H12A10464   1.481   1.355   7.749 -0.3035 -0.4738 -2.0000
  104OSM   H12B10465   1.434   1.200   7.725 -0.7432  0.7129 -0.8628
  104OSM    C1110466   1.654   1.218   7.705 -0.1045 -0.6661  0.5968
  104OSM   H11A10467   1.656   1.228   7.594  4.2416  1.2630  0.6443
  104OSM   H11B10468   1.678   1.117   7.743 -0.7639 -1.0762 -0.0535
  104OSM      P10469   1.890   1.272   7.799 -0.0913  0.5445  0.1158
  104OSM    O1310470   1.982   1.379   7.819  0.8030 -0.3190  0.2658
  104OSM    O1410471   1.871   1.178   7.905 -0.9338 -0.4349 -0.9884
  104OSM    O1110472   1.946   1.188   7.684  0.3525 -0.0903  0.2177
  104OSM    O1210473   1.747   1.320   7.740  0.0179 -0.8077  0.3979
  104OSM    C1S10474   1.975   1.243   7.555 -0.0123  0.0217  0.9715
  104OSM    H1S10475   2.061   1.313   7.556  0.6764 -0.7493 -0.7955
  104OSM    H1T10476   1.892   1.308   7.521  0.3043  0.8149  1.6675
  104OSM     NF10477   2.002   1.209   7.313  0.3679 -0.3378  0.1435
  104OSM    HNF10478   1.915   1.207   7.264  0.4453 -0.2057 -0.0011
  104OSM    C2S10479   1.995   1.138   7.440 -0.2606 -0.6182  0.5369
  104OSM    H2S10480   2.088   1.081   7.460 -0.1203 -0.9959 -1.0568
  104OSM    C3S10481   1.882   1.032   7.453 -0.9328 -0.2981 -0.6106
  104OSM    H3S10482   1.786   1.087   7.445  0.1774  2.6840  3.3533
  104OSM     O310483   1.874   0.973   7.582  0.6528  0.1519 -0.2644
  104OSM    HO310484   1.907   1.052   7.627 -0.3110  0.5808 -0.2908
  104OSM    C4S10485   1.897   0.919   7.361 -1.2300  0.1949  0.5648
  104OSM    H4S10486   1.992   0.866   7.368  0.1654  2.6460  1.2807
  104OSM    C5S10487   1.803   0.870   7.278  0.2029  0.5866 -0.2476
  104OSM    H5S10488   1.701   0.909   7.293 -0.6367 -1.7706  0.5817
  104OSM    C6S10489   1.807   0.752   7.184  0.0377 -0.6395  0.2045
  104OSM    H6S10490   1.779   0.789   7.083  3.0290  0.2289 -0.4315
  104OSM    H6T10491   1.718   0.690   7.206 -0.6514  0.5121  0.7094
  104OSM    C7S10492   1.923   0.652   7.166  0.3030  0.0221  0.3872
  104OSM    H7S10493   1.873   0.568   7.111  2.0692 -0.8304  0.0061
  104OSM    H7T10494   1.975   0.610   7.255  3.3267  0.0058 -1.2565
  104OSM    C8S10495   2.029   0.699   7.069  0.4223  0.7342 -0.6249
  104OSM    H8S10496   2.103   0.747   7.137 -0.0996  0.8998 -0.1663
  104OSM    H8T10497   1.985   0.774   6.999  1.3709  4.2364  2.2140
  104OSM    C9S10498   2.101   0.574   7.007  0.1442  0.0514  0.6888
  104OSM    H9S10499   2.069   0.483   7.062  1.5218 -1.9513 -1.5975
  104OSM    H9T10500   2.211   0.579   7.022 -0.1355 -0.7785  3.6851
  104OSM   C10S10501   2.067   0.565   6.856 -0.6523  0.3654 -0.9133
  104OSM   H10S10502   1.963   0.586   6.824 -0.3850  0.4612 -1.7357
  104OSM   H10T10503   2.093   0.457   6.846 -1.3637 -0.1432  1.8445
  104OSM   C11S10504   2.160   0.644   6.768  0.0148  0.1147  0.4722
  104OSM   H11S10505   2.267   0.630   6.796  0.5611  0.2806 -1.3916
  104OSM   H11T10506   2.133   0.750   6.784 -0.6237  0.4584 -2.3184
  104OSM   C12S10507   2.151   0.606   6.623  0.2890 -0.3675 -0.3525
  104OSM   H12S10508   2.192   0.688   6.560  0.8429 -0.7187 -0.4567
  104OSM   H12T10509   2.046   0.589   6.591 -0.4171 -0.5353  1.8806
  104OSM   C13S10510   2.224   0.477   6.573  0.3855 -0.1071 -0.6769
  104OSM   H13S10511   2.185   0.380   6.611 -3.0695  0.3362 -2.6804
  104OSM   H13T10512   2.332   0.490   6.597  0.2037 -0.6582  0.5039
  104OSM   C14S10513   2.218   0.457   6.414 -0.5753  0.1326 -0.3196
  104OSM   H14S10514   2.111   0.437   6.390 -1.0429  2.3940 -0.3890
  104OSM   H14T10515   2.279   0.365   6.403  0.2796  0.2844  2.4400
  104OSM   C15S10516   2.284   0.571   6.336 -0.5726 -0.2011  0.1417
  104OSM   H15S10517   2.384   0.581   6.384  0.0307 -0.1760 -1.1025
  104OSM   H15T10518   2.220   0.661   6.342 -1.0024 -0.5558  1.1510
  104OSM   C16S10519   2.307   0.539   6.184  0.8440 -0.2697 -0.5925
  104OSM   H16S10520   2.333   0.431   6.177  0.6970 -0.5042  1.7765
  104OSM   H16T10521   2.387   0.601   6.139  1.3226  0.2926  0.9830
  104OSM   C17S10522   2.182   0.559   6.103  0.4853 -0.2664  0.3618
  104OSM   H17S10523   2.095   0.513   6.155 -0.1932 -0.4371 -0.8654
  104OSM   H17T10524   2.187   0.507   6.005 -2.1992  0.7444 -0.4181
  104OSM   C18S10525   2.153   0.707   6.081 -0.6293 -0.4427 -0.6655
  104OSM   H18S10526   2.053   0.718   6.032 -0.7910  1.5894  0.0459
  104OSM   H18T10527   2.226   0.752   6.010 -0.3216  1.4187  0.7591
  104OSM   H18U10528   2.155   0.768   6.173  2.0684 -1.4936  0.0659
  104OSM    C1F10529   2.100   1.292   7.276 -0.1634 -0.4570 -0.8852
  104OSM     OF10530   2.206   1.297   7.339  0.0161  0.1790 -0.3691
  104OSM    C2F10531   2.072   1.376   7.149  0.3339 -0.8070 -1.1230
  104OSM    H2F10532   2.033   1.476   7.181  1.2578 -0.3861 -1.2745
  104OSM    H2G10533   1.998   1.329   7.081 -1.8285 -0.7465  1.0387
  104OSM    C3F10534   2.198   1.400   7.057  0.1180  0.4300  0.2372
  104OSM    H3F10535   2.269   1.315   7.058  0.4602  0.7176  0.3267
  104OSM    H3G10536   2.256   1.484   7.099  1.9867 -0.7930  0.2054
  104OSM    C4F10537   2.143   1.439   6.922 -0.0279 -0.6957 -0.1998
  104OSM    H4F10538   2.101   1.542   6.918  1.7685  0.0734 -0.1384
  104OSM    H4G10539   2.057   1.380   6.884 -0.7934 -0.6741  1.3794
  104OSM    C5F10540   2.265   1.451   6.831  0.0304 -0.6227 -0.7724
  104OSM    H5F10541   2.320   1.355   6.825  0.5373 -0.3464 -0.5267
  104OSM    H5G10542   2.335   1.523   6.877 -1.6384  0.5778 -0.0051
  104OSM    C6F10543   2.228   1.492   6.687 -0.3073  0.6609 -0.0823
  104OSM    H6F10544   2.322   1.530   6.642  0.7560 -1.2389  0.4107
  104OSM    H6G10545   2.146   1.567   6.678  0.2149  1.4251  1.2371
  104OSM    C7F10546   2.192   1.379   6.583 -0.6640 -0.3440 -0.1868
  104OSM    H7F10547   2.109   1.318   6.625 -0.0728 -0.1866  1.3031
  104OSM    H7G10548   2.280   1.311   6.580 -1.0754 -0.9441  0.6791
  104OSM    C8F10549   2.148   1.425   6.447  0.4610 -0.5282 -0.5342
  104OSM    H8F10550   2.078   1.510   6.463  0.0160 -0.8765 -0.6186
  104OSM    H8G10551   2.087   1.349   6.394 -1.5336 -0.1323  1.0868
  104OSM    C9F10552   2.267   1.475   6.369 -0.7902 -0.9369  0.3004
  104OSM    H9F10553   2.272   1.584   6.365 -3.0020 -0.7746  0.5139
  104OSM   C10F10554   2.341   1.415   6.276 -0.1267  0.1510  0.0829
  104OSM   H10F10555   2.426   1.473   6.237  0.3453 -0.7328 -0.2206
  104OSM   C11F10556   2.340   1.268   6.239 -0.2495 -0.3894 -0.0744
  104OSM   H11F10557   2.287   1.218   6.323 -3.4071  3.5639  0.5739
  104OSM   H11G10558   2.447   1.239   6.229  0.2379 -0.2135  3.4106
  104OSM   C12F10559   2.252   1.238   6.113  0.1387  0.0568 -0.3169
  104OSM   H12F10560   2.149   1.280   6.123  0.1199  0.6097 -2.3579
  104OSM   H12G10561   2.237   1.129   6.101  1.3968 -0.1171 -0.4407
  104OSM   C13F10562   2.304   1.294   5.976  0.0124 -0.2306  0.1105
  104OSM   H13F10563   2.398   1.234   5.966  0.4864  0.5771 -0.4114
  104OSM   H13G10564   2.318   1.402   5.997  0.5901  0.0875 -1.7405
  104OSM   C14F10565   2.215   1.274   5.853 -0.5611  0.2338  0.2347
  104OSM   H14F10566   2.120   1.329   5.873 -0.9918  0.3451 -1.9025
  104OSM   H14G10567   2.184   1.168   5.848  0.4236 -0.0631  0.3586
  104OSM   C15F10568   2.295   1.315   5.725  0.3505 -0.2003  0.9517
  104OSM   H15F10569   2.221   1.319   5.643  0.6439  0.5247  0.7186
  104OSM   H15G10570   2.377   1.242   5.708  0.8723  1.0417 -2.7980
  104OSM   C16F10571   2.360   1.455   5.724  0.9155 -0.3494  0.1113
  104OSM   H16F10572   2.417   1.472   5.631 -0.4601 -4.5941 -1.7503
  104OSM   H16G10573   2.442   1.463   5.799  0.5801  2.8160  0.2630
  104OSM   C17F10574   2.260   1.572   5.762 -0.4430 -0.0965  0.0875
  104OSM   H17F10575   2.324   1.658   5.792  0.5863 -0.0222 -2.1052
  104OSM   H17G10576   2.197   1.541   5.848  1.7758  1.1938  2.3089
  104OSM   C18F10577   2.165   1.621   5.652  0.6628 -0.3812  0.4381
  104OSM   H18F10578   2.110   1.713   5.681 -1.2092 -1.8283  1.7335
  104OSM   H18G10579   2.095   1.538   5.629 -1.4300  2.1059 -3.1234
  104OSM   H18H10580   2.224   1.646   5.561 -0.2504 -0.3762 -0.1664
  105OSM      N10581   4.198   6.265   7.967  0.2058 -0.2521  0.9483
  105OSM    C1510582   4.139   6.325   7.848  0.4802 -0.1829  0.3894
  105OSM   H15A10583   4.205   6.342   7.764  0.5954 -0.3082  0.4543
  105OSM   H15B10584   4.107   6.426   7.867  3.4069  0.9532 -0.2014
  105OSM   H15C10585   4.058   6.261   7.816 -0.6746 -0.1999  3.1086
  105OSM    C1410586   4.232   6.119   7.939 -0.0322  0.5717 -0.3813
  105OSM   H14A10587   4.176   6.054   8.005 -0.5342  1.5029  0.1191
  105OSM   H14B10588   4.337   6.102   7.959 -0.0787  1.4688  0.6862
  105OSM   H14C10589   4.204   6.099   7.837 -1.5391  1.1217 -0.0858
  105OSM    C1310590   4.323   6.345   7.995  0.2498 -0.1525 -0.0727
  105OSM   H13A10591   4.304   6.435   8.051  1.1085 -0.4827  0.7910
  105OSM   H13B10592   4.359   6.384   7.901  0.2774  1.0300  0.4106
  105OSM   H13C10593   4.406   6.294   8.043  0.6551  0.9462  0.4104
  105OSM    C1210594   4.101   6.279   8.077 -0.2923  0.1086  0.0816
  105OSM   H12A10595   4.101   6.381   8.113  2.0440 -0.3052  1.4739
  105OSM   H12B10596   4.135   6.217   8.158 -2.4189 -0.4442  0.6050
  105OSM    C1110597   3.953   6.251   8.046  0.7112  0.2521  0.4584
  105OSM   H11A10598   3.918   6.322   7.967  0.9755 -1.4058 -1.2050
  105OSM   H11B10599   3.893   6.276   8.137  1.5133  0.0679  1.0443
  105OSM      P10600   3.806   6.024   8.025 -0.3491 -0.2265 -0.1751
  105OSM    O1310601   3.833   5.912   8.116 -0.0975  0.1020  0.4595
  105OSM    O1410602   3.689   6.113   8.046 -0.2319  0.0641 -0.1145
  105OSM    O1110603   3.785   5.957   7.885 -0.3793  0.1382  0.1462
  105OSM    O1210604   3.934   6.114   8.003 -0.1560  0.9393  0.2103
  105OSM    C1S10605   3.752   6.031   7.768 -0.3373 -0.4630  0.1343
  105OSM    H1S10606   3.787   6.137   7.772 -1.2634 -0.0937 -1.0105
  105OSM    H1T10607   3.644   6.047   7.751 -0.0557 -0.1871 -1.5473
  105OSM     NF10608   3.756   6.053   7.527 -0.2828  0.0406  0.4134
  105OSM    HNF10609   3.676   6.016   7.481 -0.0618  0.5758 -0.4317
  105OSM    C2S10610   3.804   5.975   7.635 -0.1042 -0.0370 -0.4948
  105OSM    H2S10611   3.914   5.980   7.643 -0.2901  1.7153  3.9891
  105OSM    C3S10612   3.751   5.832   7.623 -0.4720  0.3520 -0.3847
  105OSM    H3S10613   3.640   5.835   7.628 -0.4278  4.8024  1.6853
  105OSM     O310614   3.792   5.745   7.735  0.3043 -0.1560  0.3126
  105OSM    HO310615   3.802   5.814   7.802 -1.3655  0.2173  0.2282
  105OSM    C4S10616   3.804   5.771   7.490 -0.2668 -0.4563  0.0823
  105OSM    H4S10617   3.719   5.748   7.425  0.6340 -0.5382 -1.0994
  105OSM    C5S10618   3.933   5.736   7.454  0.4546 -0.0683 -0.2857
  105OSM    H5S10619   4.024   5.760   7.512  1.0914 -0.8431 -0.9312
  105OSM    C6S10620   3.984   5.676   7.326  0.2127 -0.4300  0.0487
  105OSM    H6S10621   3.910   5.673   7.244  1.1593 -0.7681 -0.8025
  105OSM    H6T10622   4.023   5.573   7.343  1.6639 -0.3679 -2.5208
  105OSM    C7S10623   4.115   5.748   7.288  0.0294  0.2469 -0.6389
  105OSM    H7S10624   4.195   5.743   7.365 -0.1730 -1.3375 -0.4897
  105OSM    H7T10625   4.099   5.854   7.262  0.5506  0.4675 -0.0761
  105OSM    C8S10626   4.178   5.676   7.169 -0.7276 -0.4371 -0.2122
  105OSM    H8S10627   4.176   5.568   7.194  0.2134 -0.1410  1.2309
  105OSM    H8T10628   4.285   5.706   7.161 -0.8835  0.1182 -0.3231
  105OSM    C9S10629   4.113   5.715   7.037  0.4316 -0.3655 -0.2940
  105OSM    H9S10630   4.139   5.822   7.021 -2.0673  0.1383 -1.4409
  105OSM    H9T10631   4.002   5.713   7.040  0.4376 -1.4984 -0.4631
  105OSM   C10S10632   4.179   5.647   6.919  0.0729  0.7632 -0.2312
  105OSM   H10S10633   4.162   5.539   6.902  0.9319  0.4094  1.0528
  105OSM   H10T10634   4.286   5.648   6.947  0.1290 -4.3097  0.5967
  105OSM   C11S10635   4.159   5.731   6.790  0.2551  0.1797 -0.6669
  105OSM   H11S10636   4.173   5.839   6.808  0.1515  0.4153 -1.9301
  105OSM   H11T10637   4.058   5.714   6.748 -0.6189  2.0025  0.5686
  105OSM   C12S10638   4.246   5.690   6.670  0.7311  0.1867 -0.3023
  105OSM   H12S10639   4.205   5.590   6.645 -2.9242  1.6060 -0.5911
  105OSM   H12T10640   4.352   5.693   6.703  0.4079 -0.3033  0.8413
  105OSM   C13S10641   4.228   5.786   6.550  0.7959  0.0338  0.3302
  105OSM   H13S10642   4.236   5.891   6.588  0.0146  0.2946 -0.1993
  105OSM   H13T10643   4.124   5.768   6.515  0.2658  1.2236  1.2064
  105OSM   C14S10644   4.322   5.751   6.431  0.6852 -0.2278 -0.4234
  105OSM   H14S10645   4.294   5.799   6.335  3.6073 -0.2881 -1.4273
  105OSM   H14T10646   4.328   5.643   6.409 -0.7265 -0.6633  1.1261
  105OSM   C15S10647   4.463   5.805   6.461 -0.2931  0.3651 -0.0221
  105OSM   H15S10648   4.510   5.747   6.543 -1.5382  0.4570  0.7704
  105OSM   H15T10649   4.448   5.911   6.493 -0.7773  0.7588 -1.4477
  105OSM   C16S10650   4.555   5.799   6.332 -0.2470  0.3512  0.5178
  105OSM   H16S10651   4.521   5.886   6.272  2.3056  1.9621  1.2551
  105OSM   H16T10652   4.525   5.703   6.284  0.2156  1.4161 -2.0842
  105OSM   C17S10653   4.708   5.802   6.348  0.3124 -0.3298  0.0870
  105OSM   H17S10654   4.734   5.724   6.423 -0.7257 -1.0154 -0.2567
  105OSM   H17T10655   4.724   5.899   6.401 -0.8123  1.0970 -2.0100
  105OSM   C18S10656   4.784   5.793   6.226 -0.5724 -0.3215  0.0797
  105OSM   H18S10657   4.754   5.855   6.139  2.8117  0.5700 -0.5964
  105OSM   H18T10658   4.780   5.687   6.193  1.4228 -0.9236  1.5928
  105OSM   H18U10659   4.892   5.807   6.245 -0.4636 -0.5440 -0.3548
  105OSM    C1F10660   3.798   6.176   7.494 -0.4660 -1.0326 -0.1084
  105OSM     OF10661   3.896   6.232   7.546 -0.1434  0.9606 -0.1582
  105OSM    C2F10662   3.708   6.236   7.389  0.6448 -0.1227 -0.4491
  105OSM    H2F10663   3.640   6.303   7.444  2.6362  1.7742 -0.1826
  105OSM    H2G10664   3.640   6.160   7.345 -0.1318  1.2204 -1.6651
  105OSM    C3F10665   3.776   6.314   7.271 -0.2505 -0.0563 -0.4145
  105OSM    H3F10666   3.831   6.396   7.322  0.9088 -1.0596 -0.0027
  105OSM    H3G10667   3.701   6.359   7.203 -1.4454 -0.8843  0.3278
  105OSM    C4F10668   3.871   6.224   7.176  0.4276 -1.0580  0.2621
  105OSM    H4F10669   3.952   6.172   7.233 -0.5112 -1.9824  0.7848
  105OSM    H4G10670   3.920   6.296   7.107 -2.0088  2.1005  1.5533
  105OSM    C5F10671   3.801   6.110   7.102  0.0714  0.3088  0.4038
  105OSM    H5F10672   3.701   6.144   7.069  0.2694 -1.1692 -1.9238
  105OSM    H5G10673   3.783   6.033   7.181  1.5689 -1.8332 -1.2160
  105OSM    C6F10674   3.889   6.059   6.992  0.8824 -0.4281  0.0629
  105OSM    H6F10675   3.822   5.983   6.946 -1.4327  0.9546  0.9865
  105OSM    H6G10676   3.982   6.011   7.030  1.8865  2.3204  1.3492
  105OSM    C7F10677   3.919   6.163   6.879  0.2056  0.3537 -0.4373
  105OSM    H7F10678   3.985   6.243   6.918  1.0128 -1.0128  1.1250
  105OSM    H7G10679   3.828   6.212   6.839 -1.0440 -0.3680  1.3878
  105OSM    C8F10680   3.997   6.110   6.750  0.5198 -0.1200 -0.8856
  105OSM    H8F10681   4.082   6.051   6.791 -1.1913 -0.3693  2.7012
  105OSM    H8G10682   4.043   6.198   6.699  1.4875 -0.2682 -0.2958
  105OSM    C9F10683   3.919   6.032   6.649  0.6101 -0.8009 -0.4166
  105OSM    H9F10684   3.883   5.930   6.669 -0.6568  0.0951  2.2040
  105OSM   C10F10685   3.919   6.060   6.514 -0.5623  0.0694 -0.3854
  105OSM   H10F10686   3.852   5.998   6.453  0.5135  1.5852 -3.2854
  105OSM   C11F10687   3.990   6.167   6.435 -0.0846  0.1551 -0.8222
  105OSM   H11F10688   4.030   6.240   6.509  1.7205 -1.2242 -0.3687
  105OSM   H11G10689   3.920   6.218   6.365 -2.1294 -1.1627  0.2011
  105OSM   C12F10690   4.116   6.115   6.371  0.0584  0.4399  0.3289
  105OSM   H12F10691   4.179   6.038   6.421  1.5092 -1.6586 -4.1850
  105OSM   H12G10692   4.182   6.196   6.334  0.5919 -0.5018 -0.8618
  105OSM   C13F10693   4.077   6.047   6.238 -0.8724 -0.1002  0.8540
  105OSM   H13F10694   3.999   6.116   6.201 -0.3953  0.6098  1.1576
  105OSM   H13G10695   4.036   5.945   6.256  0.1821 -1.0415 -1.5971
  105OSM   C14F10696   4.192   6.044   6.133  0.2398 -0.2773  0.6341
  105OSM   H14F10697   4.261   5.962   6.164 -0.2476 -0.7114  0.5901
  105OSM   H14G10698   4.245   6.141   6.144  0.4112 -0.5763  3.1200
  105OSM   C15F10699   4.150   6.008   5.992  0.5081  0.4140  0.5152
  105OSM   H15F10700   4.090   5.915   5.998  0.6556  0.2964  0.1769
  105OSM   H15G10701   4.240   5.994   5.929  0.1292  3.4402 -0.9110
  105OSM   C16F10702   4.063   6.120   5.926  0.0694  0.4054 -0.7352
  105OSM   H16F10703   4.110   6.220   5.939 -1.5153  0.8643  2.2022
  105OSM   H16G10704   3.968   6.135   5.982  0.0592 -3.1124  0.3900
  105OSM   C17F10705   4.013   6.095   5.781 -0.0064  0.9300 -0.5583
  105OSM   H17F10706   3.950   6.183   5.755  0.4137  0.7397 -2.3785
  105OSM   H17G10707   3.950   6.004   5.772 -1.8150  2.1447 -0.9831
  105OSM   C18F10708   4.121   6.078   5.674 -0.2523  0.2375 -0.6655
  105OSM   H18F10709   4.076   6.051   5.576 -0.2498 -1.2219 -0.2891
  105OSM   H18G10710   4.198   6.001   5.697  0.8576  1.2988 -0.7493
  105OSM   H18H10711   4.190   6.165   5.673  0.6206 -0.3516  1.7914
  106OSM      N10712   0.848   3.473   7.782  0.2604 -0.8972  0.3416
  106OSM    C1510713   0.716   3.529   7.804  0.0307  0.4802 -0.6555
  106OSM   H15A10714   0.717   3.557   7.908 -1.7334 -0.3373 -0.3745
  106OSM   H15B10715   0.643   3.451   7.789  0.9237 -0.4138 -0.4931
  106OSM   H15C10716   0.700   3.616   7.743  0.5549 -0.0481 -1.5578
  106OSM    C1410717   0.948   3.572   7.830 -0.2808  0.5248 -0.3344
  106OSM   H14A10718   1.051   3.547   7.812 -0.2053 -0.3953  1.2590
  106OSM   H14B10719   0.943   3.593   7.936  2.0942 -2.5580  0.5442
  106OSM   H14C10720   0.932   3.668   7.782 -2.0875 -0.1161 -1.0994
  106OSM    C1310721   0.862   3.349   7.863 -0.4772  0.2966  0.3372
  106OSM   H13A10722   0.969   3.334   7.853 -0.0036  2.8999  0.9886
  106OSM   H13B10723   0.816   3.260   7.823  0.2913 -0.8792  1.9241
  106OSM   H13C10724   0.838   3.357   7.968 -1.7415 -1.8323  0.2766
  106OSM    C1210725   0.868   3.445   7.635  0.2365  0.2936 -0.0580
  106OSM   H12A10726   0.816   3.523   7.582 -3.4945 -2.1787 -0.4468
  106OSM   H12B10727   0.817   3.351   7.621 -0.1784 -0.1775  3.7455
  106OSM    C1110728   1.013   3.448   7.583 -0.2066  0.5214 -0.4274
  106OSM   H11A10729   1.057   3.549   7.595 -2.8810  1.8528 -1.0029
  106OSM   H11B10730   1.014   3.419   7.476  4.1139  0.8331 -0.6509
  106OSM      P10731   1.240   3.366   7.694  0.2683 -0.1579  0.4350
  106OSM    O1310732   1.254   3.500   7.739  0.2647  0.0563  0.1479
  106OSM    O1410733   1.272   3.252   7.790  0.3407 -0.7050  0.1506
  106OSM    O1110734   1.319   3.342   7.560 -0.0758 -0.1222 -0.4466
  106OSM    O1210735   1.096   3.341   7.646  0.2856  0.0171 -0.0626
  106OSM    C1S10736   1.359   3.458   7.486  1.0473 -0.0938 -0.0072
  106OSM    H1S10737   1.432   3.522   7.540  1.2002 -1.1702  1.1140
  106OSM    H1T10738   1.274   3.524   7.458  1.0421 -0.2409 -0.3427
  106OSM     NF10739   1.466   3.542   7.285 -0.1579  0.3438  0.4991
  106OSM    HNF10740   1.405   3.603   7.235  2.0069  1.8488 -0.4549
  106OSM    C2S10741   1.401   3.424   7.339  0.2383 -0.5187  0.2664
  106OSM    H2S10742   1.482   3.349   7.353  3.4756  2.0781 -2.7077
  106OSM    C3S10743   1.273   3.367   7.262  0.5148  0.7322 -0.8071
  106OSM    H3S10744   1.184   3.432   7.276 -0.4046 -0.1163 -2.4634
  106OSM     O310745   1.250   3.235   7.306  0.1537  0.0362 -0.5137
  106OSM    HO310746   1.304   3.217   7.382 -0.3741  0.3380 -0.0561
  106OSM    C4S10747   1.297   3.342   7.125 -1.1846 -0.3470  0.4638
  106OSM    H4S10748   1.402   3.312   7.112 -0.6418  0.7299  1.9840
  106OSM    C5S10749   1.205   3.359   7.030  0.3092 -0.8084 -0.0671
  106OSM    H5S10750   1.103   3.395   7.053 -0.4033 -2.1518 -1.0084
  106OSM    C6S10751   1.228   3.355   6.879  0.6319 -0.0394 -0.2420
  106OSM    H6S10752   1.139   3.394   6.825  0.8243 -0.3141 -0.7612
  106OSM    H6T10753   1.235   3.247   6.853 -1.4100 -0.1843 -0.3704
  106OSM    C7S10754   1.343   3.434   6.805  0.0067 -0.3264 -0.0677
  106OSM    H7S10755   1.435   3.414   6.863 -1.5375 -1.0057  2.3031
  106OSM    H7T10756   1.314   3.540   6.817 -1.2911 -0.8102  1.4736
  106OSM    C8S10757   1.357   3.383   6.660  0.0223 -0.1159  0.5151
  106OSM    H8S10758   1.265   3.405   6.602  1.0029 -1.0215 -1.4996
  106OSM    H8T10759   1.360   3.272   6.662 -0.5642 -0.1262  1.2345
  106OSM    C9S10760   1.470   3.461   6.596  0.0272  0.1292  0.8170
  106OSM    H9S10761   1.568   3.436   6.641  0.0069 -3.6935 -0.8751
  106OSM    H9T10762   1.468   3.572   6.600 -0.8662  0.1901 -0.6041
  106OSM   C10S10763   1.479   3.437   6.445  0.5936 -0.0724 -0.2671
  106OSM   H10S10764   1.385   3.475   6.399  1.6635  1.6977 -1.0603
  106OSM   H10T10765   1.491   3.329   6.424  1.2413 -0.3773  1.5056
  106OSM   C11S10766   1.585   3.522   6.376  0.6644 -0.4357  0.0843
  106OSM   H11S10767   1.688   3.487   6.394  1.4972  0.7115 -2.0122
  106OSM   H11T10768   1.579   3.617   6.434 -1.5002 -0.9942  0.9005
  106OSM   C12S10769   1.559   3.547   6.227  0.2085  0.2940  0.1058
  106OSM   H12S10770   1.619   3.634   6.194  3.0872 -1.1633  1.1304
  106OSM   H12T10771   1.450   3.567   6.226  0.2022  0.2672  0.2266
  106OSM   C13S10772   1.591   3.419   6.144  0.2470  0.1314  0.7442
  106OSM   H13S10773   1.508   3.347   6.163  0.4710 -0.0154  1.1820
  106OSM   H13T10774   1.685   3.371   6.179 -0.5846 -1.6766  0.6089
  106OSM   C14S10775   1.590   3.455   5.996 -0.5013 -0.3067  0.4440
  106OSM   H14S10776   1.488   3.483   5.963 -1.0309 -3.1475 -0.6671
  106OSM   H14T10777   1.619   3.365   5.938  1.2144  1.6839 -2.0375
  106OSM   C15S10778   1.684   3.566   5.950  0.7914  0.3912  0.2083
  106OSM   H15S10779   1.790   3.542   5.972  0.9499 -0.4122 -1.3202
  106OSM   H15T10780   1.661   3.667   5.991  0.5589  0.3911  0.0805
  106OSM   C16S10781   1.669   3.585   5.799  0.3939  0.5635  0.3038
  106OSM   H16S10782   1.701   3.687   5.768  1.9446 -0.8483 -3.3808
  106OSM   H16T10783   1.566   3.574   5.758  1.2447  0.0069 -1.8555
  106OSM   C17S10784   1.762   3.496   5.707 -0.3794 -0.2308  0.1691
  106OSM   H17S10785   1.727   3.394   5.736 -0.7875  0.5901  2.7924
  106OSM   H17T10786   1.867   3.508   5.741 -0.1871  2.7237 -1.1662
  106OSM   C18S10787   1.746   3.526   5.558 -0.1542  0.1848  0.5592
  106OSM   H18S10788   1.832   3.584   5.517 -0.8730 -0.4775 -2.0910
  106OSM   H18T10789   1.654   3.584   5.539  0.8838  1.4825 -0.7392
  106OSM   H18U10790   1.742   3.433   5.497 -0.3569  0.6101 -0.0896
  106OSM    C1F10791   1.577   3.587   7.332 -0.1612  0.2916  0.0927
  106OSM     OF10792   1.640   3.518   7.409  0.3090  0.2944 -0.5414
  106OSM    C2F10793   1.619   3.722   7.293 -0.1647  0.5257  0.2103
  106OSM    H2F10794   1.548   3.795   7.337 -1.3923 -0.5033 -0.0231
  106OSM    H2G10795   1.607   3.740   7.184  2.8616 -0.7751 -0.4327
  106OSM    C3F10796   1.771   3.751   7.339 -0.1343 -0.4114 -0.1887
  106OSM    H3F10797   1.830   3.673   7.287  0.2830  0.1800 -0.6273
  106OSM    H3G10798   1.786   3.753   7.449 -1.4514 -1.4592  0.0315
  106OSM    C4F10799   1.809   3.889   7.282  0.0133  0.1303  0.9826
  106OSM    H4F10800   1.779   3.968   7.354  0.0803 -0.3176  1.5103
  106OSM    H4G10801   1.755   3.914   7.189  2.0145 -1.3785 -0.6835
  106OSM    C5F10802   1.956   3.895   7.245 -0.7599 -0.3225  0.5028
  106OSM    H5F10803   1.982   3.815   7.172  0.3599  2.0628 -1.8521
  106OSM    H5G10804   2.006   3.860   7.338 -2.5218  1.0773  2.0503
  106OSM    C6F10805   2.013   4.032   7.195 -0.6439  0.0185 -0.6534
  106OSM    H6F10806   2.120   4.021   7.168 -0.9373 -1.6239 -1.2659
  106OSM    H6G10807   1.980   4.101   7.276 -0.7668 -0.8913  0.0970
  106OSM    C7F10808   1.944   4.088   7.063 -0.2870  0.2066  0.3085
  106OSM    H7F10809   1.985   4.186   7.032 -1.1494  0.1078 -1.2067
  106OSM    H7G10810   1.839   4.089   7.097 -0.7907 -2.7459 -0.8337
  106OSM    C8F10811   1.962   3.989   6.945  0.0886  0.5696  0.3748
  106OSM    H8F10812   1.921   4.031   6.851 -3.6949  1.5156  2.2421
  106OSM    H8G10813   1.906   3.894   6.964 -0.1073  0.8895  1.4554
  106OSM    C9F10814   2.103   3.948   6.929  0.1210 -0.1988 -0.1700
  106OSM    H9F10815   2.125   3.862   6.993 -3.4320 -1.1741 -0.0164
  106OSM   C10F10816   2.189   3.977   6.830 -0.0796  0.3362  0.2771
  106OSM   H10F10817   2.272   3.905   6.830 -1.0614 -0.9753 -3.2038
  106OSM   C11F10818   2.185   4.089   6.732 -0.0826 -0.4542  0.3477
  106OSM   H11F10819   2.264   4.163   6.756  1.2518 -1.6961 -0.0892
  106OSM   H11G10820   2.088   4.144   6.731 -0.4312 -1.0656 -0.4990
  106OSM   C12F10821   2.212   4.040   6.585  0.4932  0.5818  0.4217
  106OSM   H12F10822   2.127   3.973   6.560 -0.7444  2.0297  0.5886
  106OSM   H12G10823   2.309   3.986   6.587  0.5084  0.6293  2.0538
  106OSM   C13F10824   2.206   4.150   6.480  0.2886 -0.4896  0.4636
  106OSM   H13F10825   2.292   4.216   6.502 -1.3505  1.5641  1.0562
  106OSM   H13G10826   2.114   4.211   6.493  0.6664  0.1483  0.2053
  106OSM   C14F10827   2.221   4.109   6.334 -0.2416  0.2237 -0.6856
  106OSM   H14F10828   2.124   4.078   6.290  0.0271  1.7394 -2.4900
  106OSM   H14G10829   2.298   4.030   6.340  0.4313  0.9949  2.5387
  106OSM   C15F10830   2.264   4.222   6.241 -0.5169  0.1613 -0.3095
  106OSM   H15F10831   2.372   4.246   6.253  0.0464 -2.3687  0.2413
  106OSM   H15G10832   2.205   4.315   6.256 -0.4953  0.4091 -1.6597
  106OSM   C16F10833   2.240   4.189   6.094  0.9471 -0.3111  0.8258
  106OSM   H16F10834   2.132   4.166   6.081  0.5457  1.5819  0.4549
  106OSM   H16G10835   2.292   4.098   6.058 -1.4749 -0.7124 -2.0112
  106OSM   C17F10836   2.252   4.308   6.004  0.3148  0.8508 -0.2574
  106OSM   H17F10837   2.196   4.392   6.051  0.0751  1.4994 -1.6484
  106OSM   H17G10838   2.206   4.297   5.903 -0.1449 -2.9420  0.2285
  106OSM   C18F10839   2.396   4.346   5.987  0.1964 -0.5295  0.0764
  106OSM   H18F10840   2.461   4.258   5.966  1.3765  0.6648 -1.4964
  106OSM   H18G10841   2.430   4.390   6.083 -1.4411  2.6001 -0.6476
  106OSM   H18H10842   2.404   4.426   5.910 -1.3296 -0.9875 -0.6000
  107OSM      N10843   0.686   0.921   8.159 -0.2242  0.1242  0.3099
  107OSM    C1510844   0.816   0.946   8.212  0.5895 -0.1804 -0.1023
  107OSM   H15A10845   0.875   0.856   8.227  0.8107  0.2271  1.6361
  107OSM   H15B10846   0.810   0.997   8.307 -0.1699 -0.7668  0.1707
  107OSM   H15C10847   0.873   1.006   8.143  2.3666  0.3976  1.7586
  107OSM    C1410848   0.630   0.800   8.224  0.6525  0.0331 -0.0863
  107OSM   H14A10849   0.644   0.810   8.331  2.8501 -1.6799 -0.1440
  107OSM   H14B10850   0.671   0.704   8.197 -0.9175 -1.0552  1.1747
  107OSM   H14C10851   0.523   0.802   8.204  0.8175  1.0575 -0.9484
  107OSM    C1310852   0.594   1.036   8.209 -0.6562  0.7473  0.2657
  107OSM   H13A10853   0.589   1.037   8.316  0.7222 -1.1168  0.4046
  107OSM   H13B10854   0.497   1.036   8.162 -1.3720  0.9054  1.7022
  107OSM   H13C10855   0.639   1.129   8.178  2.0617 -0.5228  0.0914
  107OSM    C1210856   0.686   0.901   8.001  0.7230 -0.3685 -1.0921
  107OSM   H12A10857   0.765   0.835   7.966  0.8867 -0.2821 -0.8858
  107OSM   H12B10858   0.712   1.000   7.965  2.0885 -0.4572 -0.4319
  107OSM    C1110859   0.546   0.874   7.929  0.2420 -0.3763 -0.0267
  107OSM   H11A10860   0.555   0.889   7.819  1.6537 -2.3375 -0.2357
  107OSM   H11B10861   0.470   0.939   7.976  0.1004 -0.2668 -0.3995
  107OSM      P10862   0.566   0.621   7.870 -0.4621  0.3832 -0.2015
  107OSM    O1310863   0.714   0.615   7.878 -0.2060  0.5557 -0.1265
  107OSM    O1410864   0.495   0.501   7.910 -0.3809 -0.1575 -0.1192
  107OSM    O1110865   0.535   0.660   7.721  0.2364 -0.4272 -0.6311
  107OSM    O1210866   0.503   0.740   7.956 -0.2656  0.3007 -0.3061
  107OSM    C1S10867   0.398   0.665   7.687  0.4685  0.0693  0.7093
  107OSM    H1S10868   0.335   0.735   7.746  0.8048 -1.3631  2.8814
  107OSM    H1T10869   0.352   0.564   7.699  1.9523 -1.2095 -3.0178
  107OSM     NF10870   0.236   0.714   7.510  0.2089  0.1565  0.1757
  107OSM    HNF10871   0.177   0.638   7.483  1.3506 -0.9545  0.7119
  107OSM    C2S10872   0.377   0.695   7.532 -0.1517 -0.2727 -0.7424
  107OSM    H2S10873   0.427   0.792   7.511 -0.6256 -0.0697 -0.9314
  107OSM    C3S10874   0.454   0.596   7.451 -0.3148  0.3514  1.1550
  107OSM    H3S10875   0.425   0.489   7.462  1.7848 -0.7691 -2.3725
  107OSM     O310876   0.589   0.604   7.483  0.1343 -0.0391  0.2104
  107OSM    HO310877   0.593   0.644   7.570  0.2878 -2.5935  1.4740
  107OSM    C4S10878   0.440   0.634   7.302  0.2247  0.3353 -0.1947
  107OSM    H4S10879   0.512   0.714   7.279  0.4595  0.6448  1.4775
  107OSM    C5S10880   0.351   0.580   7.221 -0.1154 -0.1625 -0.5426
  107OSM    H5S10881   0.279   0.504   7.255 -2.2957 -0.1931 -4.6198
  107OSM    C6S10882   0.339   0.620   7.074 -0.5652 -0.1419 -0.6333
  107OSM    H6S10883   0.287   0.540   7.017  0.4396 -1.7078  0.5639
  107OSM    H6T10884   0.444   0.626   7.040  0.5499  0.9049  2.6126
  107OSM    C7S10885   0.281   0.757   7.035 -0.7032 -0.5524 -1.1090
  107OSM    H7S10886   0.333   0.845   7.079 -1.0432  1.7014 -4.7863
  107OSM    H7T10887   0.178   0.758   7.076  0.2046 -0.9317  1.3831
  107OSM    C8S10888   0.286   0.790   6.879 -0.2917 -0.6694 -0.1370
  107OSM    H8S10889   0.217   0.875   6.862  0.3743 -0.2027 -0.5814
  107OSM    H8T10890   0.245   0.704   6.822  1.6639 -1.9332  0.2320
  107OSM    C9S10891   0.421   0.828   6.821  0.2868 -0.5052 -0.9271
  107OSM    H9S10892   0.504   0.767   6.864 -1.6318 -2.1408  0.6585
  107OSM    H9T10893   0.445   0.933   6.849  1.2026 -0.3257 -2.2735
  107OSM   C10S10894   0.421   0.840   6.670 -0.0666  0.1849  0.7475
  107OSM   H10S10895   0.363   0.932   6.648  1.7798  1.3862  0.6454
  107OSM   H10T10896   0.361   0.751   6.640 -0.0757  0.8602 -1.4794
  107OSM   C11S10897   0.561   0.821   6.608  0.1409 -0.6399 -0.2864
  107OSM   H11S10898   0.611   0.725   6.630  2.7343  0.3510 -1.3976
  107OSM   H11T10899   0.634   0.902   6.630  0.0352 -0.6139 -0.0234
  107OSM   C12S10900   0.547   0.827   6.455 -0.1488  0.3467 -0.3425
  107OSM   H12S10901   0.512   0.924   6.415  0.5987  1.3961  1.4363
  107OSM   H12T10902   0.477   0.745   6.426 -0.3764  0.0604  0.9129
  107OSM   C13S10903   0.687   0.798   6.392  0.9574 -0.2470 -0.4842
  107OSM   H13S10904   0.718   0.703   6.439  0.3923  1.2867  3.3397
  107OSM   H13T10905   0.761   0.876   6.421  0.4776 -0.4884  1.5056
  107OSM   C14S10906   0.689   0.801   6.235 -0.1138  0.5511  0.2684
  107OSM   H14S10907   0.618   0.876   6.194  0.5788  0.8330 -0.4481
  107OSM   H14T10908   0.671   0.699   6.193  1.2537  0.1649  0.5770
  107OSM   C15S10909   0.827   0.832   6.178 -0.0518  0.7512  0.1016
  107OSM   H15S10910   0.893   0.765   6.237 -0.2512  1.4006  1.0979
  107OSM   H15T10911   0.857   0.933   6.213 -2.0028  1.3320  0.2344
  107OSM   C16S10912   0.836   0.831   6.024  0.3052 -0.6586 -0.4869
  107OSM   H16S10913   0.942   0.844   5.995  0.4668 -0.3599  0.2218
  107OSM   H16T10914   0.769   0.908   5.979 -0.8816 -2.0359 -1.1389
  107OSM   C17S10915   0.792   0.698   5.967 -0.4932 -0.1729  0.0467
  107OSM   H17S10916   0.684   0.681   5.988 -0.5887  2.4653  2.4540
  107OSM   H17T10917   0.843   0.610   6.011 -2.7112 -0.6532  1.8606
  107OSM   C18S10918   0.817   0.689   5.818  0.1417 -0.3291 -0.6733
  107OSM   H18S10919   0.744   0.763   5.777  0.5843 -0.7000 -2.2138
  107OSM   H18T10920   0.810   0.591   5.767  1.3358 -1.2490  0.8458
  107OSM   H18U10921   0.919   0.724   5.791  0.3532 -1.9779 -2.2327
  107OSM    C1F10922   0.174   0.837   7.526 -0.1423 -0.2382  0.1683
  107OSM     OF10923   0.225   0.916   7.601 -0.0770  0.2456  0.1440
  107OSM    C2F10924   0.041   0.859   7.464  0.3203 -0.3146 -0.2965
  107OSM    H2F10925  -0.031   0.845   7.547 -0.2527  0.8959 -0.5531
  107OSM    H2G10926   0.021   0.782   7.387  0.4595 -2.8930  2.1148
  107OSM    C3F10927   0.038   1.003   7.405 -0.5558 -0.0942  0.7217
  107OSM    H3F10928   0.046   1.081   7.484 -1.4126 -0.4452  1.1628
  107OSM    H3G10929  -0.060   1.016   7.355  1.5799  0.6758 -3.8161
  107OSM    C4F10930   0.139   1.028   7.287 -0.0618  0.1663  0.7196
  107OSM    H4F10931   0.163   0.931   7.238  1.2877  0.6238  0.4337
  107OSM    H4G10932   0.228   1.075   7.333  1.0447 -0.5937 -0.5638
  107OSM    C5F10933   0.076   1.108   7.166  0.0890  0.2359 -0.1540
  107OSM    H5F10934   0.039   1.209   7.194 -4.6366 -1.0410 -0.8536
  107OSM    H5G10935  -0.016   1.058   7.128  1.2456 -0.2983 -2.4331
  107OSM    C6F10936   0.172   1.121   7.048  0.3337 -0.0026  0.6809
  107OSM    H6F10937   0.196   1.018   7.014 -1.4969 -0.1437 -0.3597
  107OSM    H6G10938   0.254   1.192   7.072 -1.3972  1.2120  3.4718
  107OSM    C7F10939   0.097   1.196   6.932  0.6880 -0.3986  0.3382
  107OSM    H7F10940   0.074   1.297   6.973  0.5850  0.9168 -2.7345
  107OSM    H7G10941   0.002   1.141   6.917 -1.3069  2.3735  1.9958
  107OSM    C8F10942   0.191   1.207   6.815 -0.6094 -1.0436 -0.0214
  107OSM    H8F10943   0.216   1.107   6.774 -0.6744 -1.8157  1.7150
  107OSM    H8G10944   0.284   1.255   6.853 -0.4352 -1.4766  0.1072
  107OSM    C9F10945   0.123   1.283   6.700  1.2645 -0.0794 -0.3780
  107OSM    H9F10946   0.015   1.302   6.709  1.3386 -0.6526  2.8272
  107OSM   C10F10947   0.186   1.320   6.590 -0.1282 -0.1455 -0.3079
  107OSM   H10F10948   0.123   1.361   6.510  1.0159 -0.9330 -1.6561
  107OSM   C11F10949   0.332   1.300   6.553  0.1913 -0.2137  0.7347
  107OSM   H11F10950   0.382   1.263   6.645 -1.3550 -2.7638  0.6301
  107OSM   H11G10951   0.367   1.400   6.519  0.5269 -0.0889  1.4261
  107OSM   C12F10952   0.348   1.189   6.443  0.5137 -0.3383  0.0665
  107OSM   H12F10953   0.311   1.093   6.484 -1.2863 -0.3593 -1.4915
  107OSM   H12G10954   0.456   1.179   6.418  0.9792  3.1586  0.1273
  107OSM   C13F10955   0.282   1.226   6.303 -0.4044 -0.5362 -0.0200
  107OSM   H13F10956   0.307   1.334   6.297  1.1206 -0.6870  2.3436
  107OSM   H13G10957   0.173   1.231   6.325  0.0593 -0.0092  2.4534
  107OSM   C14F10958   0.307   1.140   6.179  0.0447 -0.0262  0.3454
  107OSM   H14F10959   0.292   1.035   6.212  1.9707 -0.7414 -0.8941
  107OSM   H14G10960   0.414   1.135   6.148 -0.2653 -2.4828 -0.5325
  107OSM   C15F10961   0.221   1.184   6.052 -0.6009  0.3744 -0.1679
  107OSM   H15F10962   0.240   1.289   6.021  1.0001 -0.4709 -2.2935
  107OSM   H15G10963   0.113   1.167   6.072 -0.1886 -0.5531  1.3563
  107OSM   C16F10964   0.268   1.099   5.929  0.6960  0.1285  0.1689
  107OSM   H16F10965   0.269   0.991   5.959 -2.2465  0.2648  1.0251
  107OSM   H16G10966   0.375   1.124   5.912  0.8646 -0.8213 -0.2388
  107OSM   C17F10967   0.191   1.121   5.795 -0.0164  0.2850 -0.3089
  107OSM   H17F10968   0.083   1.105   5.813 -0.7539  0.7628 -3.5485
  107OSM   H17G10969   0.225   1.063   5.706 -2.5713 -1.6494 -0.1245
  107OSM   C18F10970   0.191   1.274   5.756  0.5537 -0.0409  0.0061
  107OSM   H18F10971   0.290   1.315   5.785 -1.3098  2.5632  3.2609
  107OSM   H18G10972   0.103   1.332   5.790  0.6961  2.3769 -3.2272
  107OSM   H18H10973   0.193   1.281   5.645  0.0762 -1.7892 -0.1427
  108OSM      N10974   3.508   1.641   7.821 -0.0587  0.6459 -0.2699
  108OSM    C1510975   3.504   1.656   7.963  0.4276 -0.7225 -0.6315
  108OSM   H15A10976   3.534   1.565   8.013 -1.9270 -1.1750  0.0823
  108OSM   H15B10977   3.414   1.703   8.003  0.9186  1.0051 -1.4477
  108OSM   H15C10978   3.588   1.717   7.993  0.5102 -1.5758  0.9964
  108OSM    C1410979   3.383   1.562   7.783 -0.0975  0.6562 -0.5654
  108OSM   H14A10980   3.394   1.529   7.681 -0.0328  0.9882 -0.6652
  108OSM   H14B10981   3.295   1.623   7.800 -0.0020  0.4711  0.6853
  108OSM   H14C10982   3.365   1.484   7.856 -1.0474  2.4870  1.2675
  108OSM    C1310983   3.499   1.785   7.761  0.1790  0.4076 -0.4364
  108OSM   H13A10984   3.407   1.832   7.792 -1.1774 -1.9682 -0.6925
  108OSM   H13B10985   3.492   1.770   7.654  2.8738 -1.9685 -0.3879
  108OSM   H13C10986   3.586   1.843   7.788  0.0434  0.5781 -0.3634
  108OSM    C1210987   3.629   1.560   7.775  0.1000  0.5305 -0.0067
  108OSM   H12A10988   3.630   1.465   7.828  2.1437  0.1732 -0.6172
  108OSM   H12B10989   3.719   1.606   7.810  0.0007  0.2409  0.6418
  108OSM    C1110990   3.641   1.514   7.626  0.3663  0.3167  0.1460
  108OSM   H11A10991   3.739   1.485   7.582  0.0697 -0.1323 -0.2308
  108OSM   H11B10992   3.621   1.612   7.578  0.8526  0.8341  0.9702
  108OSM      P10993   3.536   1.277   7.642  0.2515 -0.0779 -0.2597
  108OSM    O1310994   3.638   1.202   7.565  0.0307  0.0058  0.0806
  108OSM    O1410995   3.563   1.289   7.788  0.5756 -0.1519  0.4839
  108OSM    O1110996   3.390   1.227   7.615 -0.1373  0.3824 -0.2319
  108OSM    O1210997   3.535   1.427   7.578  0.0079  0.3118  0.0010
  108OSM    C1S10998   3.308   1.269   7.508  0.3016 -0.4020  0.2796
  108OSM    H1S10999   3.370   1.316   7.429 -0.6464  0.0987 -0.1930
  108OSM    H1T11000   3.224   1.334   7.541  0.2705  0.3962 -1.2631
  108OSM     NF11001   3.196   1.154   7.310  0.0086  0.2905  0.2054
  108OSM    HNF11002   3.097   1.166   7.302 -0.0994 -0.4882  0.2815
  108OSM    C2S11003   3.250   1.134   7.441 -0.4649 -0.1447  0.3435
  108OSM    H2S11004   3.337   1.066   7.424 -1.8154 -1.3259 -2.5767
  108OSM    C3S11005   3.157   1.061   7.547  0.4549  1.1266  0.8292
  108OSM    H3S11006   3.059   1.113   7.550  0.2309  1.1942 -2.7361
  108OSM     O311007   3.209   1.049   7.677  0.1191 -0.4369 -0.6248
  108OSM    HO311008   3.291   1.098   7.670 -0.1440 -0.1239 -1.5805
  108OSM    C4S11009   3.128   0.918   7.500 -0.5920 -0.3967 -0.1743
  108OSM    H4S11010   3.219   0.856   7.505 -1.1321 -1.2562 -0.7575
  108OSM    C5S11011   3.013   0.850   7.474 -1.0457 -0.1417 -0.8026
  108OSM    H5S11012   2.922   0.911   7.479 -1.3155 -0.5003 -1.2372
  108OSM    C6S11013   3.006   0.716   7.411  0.3229 -0.0005 -0.1905
  108OSM    H6S11014   2.925   0.658   7.461  0.2932  0.0582 -0.1709
  108OSM    H6T11015   3.104   0.666   7.420  1.0689  1.3718 -0.3837
  108OSM    C7S11016   2.972   0.746   7.264 -0.0306  0.5226  0.3399
  108OSM    H7S11017   2.883   0.809   7.245 -0.7629 -0.7320 -0.5566
  108OSM    H7T11018   2.957   0.650   7.210  2.3211  0.2215  0.1087
  108OSM    C8S11019   3.082   0.804   7.170 -0.0414  0.8582 -0.4688
  108OSM    H8S11020   3.177   0.746   7.180  0.4747  1.5113 -1.4202
  108OSM    H8T11021   3.108   0.905   7.208  0.2955 -0.2571  2.6072
  108OSM    C9S11022   3.038   0.821   7.020  0.2208  0.3142  0.7394
  108OSM    H9S11023   2.984   0.728   6.993  1.4003 -0.1541 -0.1024
  108OSM    H9T11024   3.129   0.847   6.961  0.3509  1.1675  1.3041
  108OSM   C10S11025   2.954   0.944   6.975  0.3925 -0.1113  0.2153
  108OSM   H10S11026   3.011   1.031   7.011  0.7158 -1.1645  2.4092
  108OSM   H10T11027   2.853   0.939   7.023  1.1695  3.8397  2.7042
  108OSM   C11S11028   2.950   0.950   6.817  0.1299  0.3846  0.2678
  108OSM   H11S11029   2.896   0.855   6.794  0.1176  0.1857  1.0861
  108OSM   H11T11030   3.051   0.948   6.771  0.2042  2.2090  0.2976
  108OSM   C12S11031   2.873   1.060   6.750  0.2882  0.2970  0.0906
  108OSM   H12S11032   2.909   1.149   6.808  1.1952 -0.6741  1.0758
  108OSM   H12T11033   2.763   1.066   6.755  0.3376  1.0633  0.3824
  108OSM   C13S11034   2.920   1.082   6.606  0.4315  0.3083  0.1951
  108OSM   H13S11035   3.027   1.113   6.611  0.3199  0.6197  0.7970
  108OSM   H13T11036   2.872   1.176   6.571 -1.0735 -0.5889 -0.2462
  108OSM   C14S11037   2.907   0.953   6.521  0.3980 -0.0933 -0.3245
  108OSM   H14S11038   2.803   0.914   6.509 -0.4347  1.5100  1.1801
  108OSM   H14T11039   2.970   0.875   6.569 -1.9187 -1.5799  0.4654
  108OSM   C15S11040   2.966   0.972   6.382 -0.6758  0.8333  0.2368
  108OSM   H15S11041   3.068   1.016   6.389 -0.0760 -0.5091  0.1961
  108OSM   H15T11042   2.901   1.038   6.321  0.7089  0.5855 -1.5743
  108OSM   C16S11043   2.974   0.839   6.313 -0.2538  0.2171 -0.2854
  108OSM   H16S11044   2.872   0.797   6.317 -0.9604  1.7759 -1.1166
  108OSM   H16T11045   3.055   0.775   6.355 -1.2767 -1.4024 -0.7142
  108OSM   C17S11046   3.002   0.854   6.170  0.9918 -0.3661 -0.3392
  108OSM   H17S11047   3.097   0.909   6.152  0.5438  0.0198 -1.5876
  108OSM   H17T11048   2.915   0.898   6.117  0.9196  0.8009  0.6924
  108OSM   C18S11049   3.034   0.718   6.105 -0.0197  0.1319 -0.0938
  108OSM   H18S11050   3.127   0.674   6.147 -0.0435 -1.2520 -1.3762
  108OSM   H18T11051   3.046   0.736   5.996  0.0392  0.9848  0.0497
  108OSM   H18U11052   2.950   0.652   6.138 -0.4649  0.0049 -1.4098
  108OSM    C1F11053   3.272   1.193   7.211 -0.4644  0.4201  0.2424
  108OSM     OF11054   3.394   1.156   7.214  0.3343 -0.4643  0.3769
  108OSM    C2F11055   3.207   1.269   7.103 -0.0093  0.6045 -0.4782
  108OSM    H2F11056   3.126   1.332   7.144 -0.0089  1.6346 -1.9724
  108OSM    H2G11057   3.160   1.209   7.022  2.5917 -0.7396 -1.1081
  108OSM    C3F11058   3.312   1.358   7.037  0.0232  0.5571  0.1747
  108OSM    H3F11059   3.413   1.314   7.024  0.3169  0.9274  1.1436
  108OSM    H3G11060   3.338   1.426   7.121  2.0249  1.8452 -1.3764
  108OSM    C4F11061   3.260   1.446   6.922  0.5181 -0.3733 -0.0968
  108OSM    H4F11062   3.339   1.516   6.889  0.9090  0.1761  1.8709
  108OSM    H4G11063   3.171   1.507   6.949  1.7218  1.1366  0.5785
  108OSM    C5F11064   3.239   1.368   6.787 -0.8114  0.2787 -0.0335
  108OSM    H5F11065   3.176   1.280   6.810 -0.5635  1.0140  4.5572
  108OSM    H5G11066   3.336   1.316   6.770  0.0659  1.3297  1.4406
  108OSM    C6F11067   3.208   1.445   6.658 -0.2935  0.5187  0.4086
  108OSM    H6F11068   3.268   1.538   6.651  0.5986 -0.1120 -0.7148
  108OSM    H6G11069   3.099   1.466   6.656 -0.7117 -1.3403  1.2532
  108OSM    C7F11070   3.236   1.360   6.538 -0.3508 -0.1038 -0.3961
  108OSM    H7F11071   3.195   1.257   6.539  3.1660 -1.6068 -0.2706
  108OSM    H7G11072   3.347   1.362   6.540 -0.3560  0.8050  1.0925
  108OSM    C8F11073   3.193   1.427   6.406 -0.0680 -0.7165 -0.0709
  108OSM    H8F11074   3.198   1.536   6.426  0.2602 -0.6441 -0.5429
  108OSM    H8G11075   3.085   1.403   6.393 -0.2199 -0.3020  0.3815
  108OSM    C9F11076   3.266   1.386   6.281 -0.1641 -0.0426 -0.0582
  108OSM    H9F11077   3.372   1.413   6.275  0.1325 -1.2572 -0.8663
  108OSM   C10F11078   3.219   1.321   6.173 -0.5299  0.8976  0.1528
  108OSM   H10F11079   3.285   1.308   6.086 -0.8881 -0.2611  0.0309
  108OSM   C11F11080   3.084   1.255   6.166  0.7196  0.0828  0.0552
  108OSM   H11F11081   3.017   1.281   6.250 -0.3471 -2.5158  0.1277
  108OSM   H11G11082   3.072   1.144   6.160 -4.3656  0.4342 -0.7536
  108OSM   C12F11083   3.004   1.295   6.043  0.5058  0.2089  0.2828
  108OSM   H12F11084   3.065   1.272   5.953  2.4998 -2.0329  2.0952
  108OSM   H12G11085   2.991   1.406   6.039  0.4828  0.3072  2.1055
  108OSM   C13F11086   2.873   1.228   6.036 -0.0070 -0.1503  0.0530
  108OSM   H13F11087   2.824   1.252   6.133 -0.2146 -0.2675 -0.0216
  108OSM   H13G11088   2.882   1.118   6.037  1.1192 -0.1284  3.7005
  108OSM   C14F11089   2.783   1.273   5.913 -0.0807  0.4187 -0.1229
  108OSM   H14F11090   2.786   1.384   5.919  3.3147  0.6942 -3.2839
  108OSM   H14G11091   2.682   1.229   5.922  0.7831 -1.4141  1.2353
  108OSM   C15F11092   2.838   1.221   5.779  0.0947 -0.3865  0.5043
  108OSM   H15F11093   2.932   1.278   5.766 -0.0876 -0.2517 -0.2518
  108OSM   H15G11094   2.773   1.252   5.694 -0.0608 -1.7717  0.0794
  108OSM   C16F11095   2.866   1.069   5.759  0.2014  0.7306 -0.9643
  108OSM   H16F11096   2.767   1.018   5.754  0.9671 -0.9814  0.3646
  108OSM   H16G11097   2.924   1.035   5.847  0.5968  2.4846 -0.5059
  108OSM   C17F11098   2.950   1.037   5.639 -0.1003  0.2382 -0.5165
  108OSM   H17F11099   3.050   1.080   5.658  0.6751 -1.4302 -0.6615
  108OSM   H17G11100   2.904   1.072   5.544 -0.7187 -0.8870 -0.6466
  108OSM   C18F11101   2.959   0.884   5.621 -0.2289 -0.9322  0.7137
  108OSM   H18F11102   3.054   0.841   5.659  2.1936  2.2343 -1.2164
  108OSM   H18G11103   2.973   0.857   5.514 -0.3753 -1.0165  0.7151
  108OSM   H18H11104   2.866   0.835   5.657 -1.5004  0.3061 -0.7286
  109OSM      N11105   6.173   3.819   7.451  0.3292 -0.4607 -0.0271
  109OSM    C1511106   6.066   3.750   7.529 -0.5397  0.7140  0.1003
  109OSM   H15A11107   6.015   3.821   7.592 -1.0997  2.6637 -2.3833
  109OSM   H15B11108   6.106   3.682   7.603  0.6525  2.3856  1.0503
  109OSM   H15C11109   5.997   3.688   7.473 -0.0916  1.4141 -1.2779
  109OSM    C1411110   6.116   3.929   7.372  0.3421 -0.2509  0.3471
  109OSM   H14A11111   6.087   4.011   7.437  2.4312 -0.8311  2.1383
  109OSM   H14B11112   6.032   3.886   7.321  1.3066 -1.6935 -0.0773
  109OSM   H14C11113   6.193   3.950   7.299  0.6417 -1.8824  0.1594
  109OSM    C1311114   6.262   3.882   7.549  0.0937  0.4367 -0.0949
  109OSM   H13A11115   6.278   3.821   7.637  0.2747  1.3451  0.5118
  109OSM   H13B11116   6.226   3.979   7.578 -2.4798  0.4671 -2.8805
  109OSM   H13C11117   6.363   3.889   7.512  0.2981  1.3918  0.6224
  109OSM    C1211118   6.256   3.721   7.368  0.2564 -0.3743 -0.3632
  109OSM   H12A11119   6.195   3.647   7.318  0.6973 -0.6654 -0.4733
  109OSM   H12B11120   6.320   3.655   7.425 -1.3785 -1.9188 -0.2242
  109OSM    C1111121   6.346   3.785   7.258 -0.1221  0.5816 -0.9100
  109OSM   H11A11122   6.296   3.856   7.190  1.0755  1.0658 -1.3180
  109OSM   H11B11123   6.386   3.694   7.208  2.1465  0.4015  1.0297
  109OSM      P11124   6.578   3.763   7.363 -0.4259  0.1297 -0.0469
  109OSM    O1311125   6.664   3.824   7.462 -0.2737  0.2060 -0.6002
  109OSM    O1411126   6.537   3.625   7.383  0.3884 -0.1744 -0.0328
  109OSM    O1111127   6.650   3.755   7.226 -0.6177  0.1833  0.7840
  109OSM    O1211128   6.453   3.856   7.322  0.1672  0.2895 -0.1473
  109OSM    C1S11129   6.703   3.886   7.175  0.1874 -0.5903 -0.3535
  109OSM    H1S11130   6.780   3.925   7.246  1.3788 -0.3351 -1.7308
  109OSM    H1T11131   6.623   3.958   7.149 -0.3385 -0.7818  0.6719
  109OSM     NF11132   6.883   3.979   7.038  0.3787 -0.5179  0.0852
  109OSM    HNF11133   6.853   4.054   6.980  1.6569 -0.1494 -0.1321
  109OSM    C2S11134   6.792   3.869   7.047 -0.4057 -0.1278  0.1510
  109OSM    H2S11135   6.854   3.779   7.065  2.3159  1.3621 -1.1316
  109OSM    C3S11136   6.704   3.847   6.924 -0.1572 -0.3114 -0.3465
  109OSM    H3S11137   6.630   3.928   6.913 -0.8856 -0.9146  0.0086
  109OSM     O311138   6.613   3.731   6.951 -0.0093  0.5431  0.2908
  109OSM    HO311139   6.640   3.700   7.038  0.8764 -0.4691 -0.3233
  109OSM    C4S11140   6.781   3.843   6.793 -0.0541 -0.5286 -0.4366
  109OSM    H4S11141   6.865   3.772   6.794  1.5313  1.2152  2.2306
  109OSM    C5S11142   6.766   3.928   6.686 -0.2158 -0.1064  0.2223
  109OSM    H5S11143   6.693   4.009   6.694  0.3992  0.6475 -1.3820
  109OSM    C6S11144   6.852   3.932   6.559 -0.3048  0.7192 -0.2115
  109OSM    H6S11145   6.924   3.848   6.567  0.4081  1.5035  3.1029
  109OSM    H6T11146   6.914   4.024   6.559 -0.9312  1.1778  1.1852
  109OSM    C7S11147   6.764   3.920   6.434 -0.3597  0.2777  0.1013
  109OSM    H7S11148   6.687   3.999   6.433 -1.4248 -0.7277 -1.4619
  109OSM    H7T11149   6.709   3.824   6.431  0.2154 -0.0434 -0.9427
  109OSM    C8S11150   6.848   3.926   6.306 -0.2690 -0.5564  0.1000
  109OSM    H8S11151   6.923   3.844   6.306 -0.6995 -0.9841 -1.4772
  109OSM    H8T11152   6.901   4.023   6.298 -0.5853 -0.5124 -2.4432
  109OSM    C9S11153   6.772   3.922   6.176  1.0557  0.0268 -0.2068
  109OSM    H9S11154   6.703   4.008   6.164  1.6874  0.3674 -1.6310
  109OSM    H9T11155   6.710   3.830   6.168  2.0737 -0.6562 -0.4711
  109OSM   C10S11156   6.861   3.921   6.054 -0.8164 -0.8610 -0.7691
  109OSM   H10S11157   6.933   3.836   6.061 -0.8768 -0.8528  0.1287
  109OSM   H10T11158   6.912   4.019   6.048 -3.3756  0.4964 -2.2396
  109OSM   C11S11159   6.785   3.910   5.928 -0.0510  0.4376  0.9847
  109OSM   H11S11160   6.720   3.998   5.911 -0.8407 -0.6355 -2.3180
  109OSM   H11T11161   6.723   3.819   5.911  2.1416 -1.3773  2.1339
  109OSM   C12S11162   6.884   3.900   5.811  0.7287 -0.5058  0.4793
  109OSM   H12S11163   6.907   3.791   5.808  0.3887 -0.5710  0.1804
  109OSM   H12T11164   6.982   3.949   5.827  2.2906 -3.0605 -0.5350
  109OSM   C13S11165   6.819   3.937   5.679  0.8694  0.3482  0.7146
  109OSM   H13S11166   6.807   4.048   5.678 -3.9301  0.0835  2.4161
  109OSM   H13T11167   6.714   3.900   5.682  0.7572  0.5486 -0.1714
  109OSM   C14S11168   6.891   3.876   5.559 -0.6201 -0.9496  0.8191
  109OSM   H14S11169   6.900   3.765   5.557 -0.6288 -0.9953  2.3976
  109OSM   H14T11170   6.992   3.922   5.563 -0.8019 -0.3343 -0.7958
  109OSM   C15S11171   6.831   3.921   5.428 -0.1900  0.7588 -0.1160
  109OSM   H15S11172   6.830   4.032   5.425  3.0489  0.8551 -0.2234
  109OSM   H15T11173   6.723   3.897   5.413 -0.0734 -1.0314  1.4862
  109OSM   C16S11174   6.901   3.876   5.301  0.2633  0.6657  0.0565
  109OSM   H16S11175   6.827   3.823   5.237 -0.6893 -0.3399  1.9189
  109OSM   H16T11176   6.987   3.806   5.309 -0.6559 -0.5037 -0.0094
  109OSM   C17S11177   6.945   4.001   5.220 -0.3057 -0.1126 -0.0701
  109OSM   H17S11178   6.858   4.070   5.224 -1.8446 -1.9971  3.1628
  109OSM   H17T11179   6.963   3.968   5.115  1.1184 -0.0219  0.1225
  109OSM   C18S11180   7.079   4.062   5.260 -0.2712  0.0244  0.1080
  109OSM   H18S11181   7.087   4.112   5.358 -0.4563 -1.7001  1.0424
  109OSM   H18T11182   7.086   4.150   5.193  0.7200 -0.4153 -0.3897
  109OSM   H18U11183   7.174   4.006   5.248  0.1078  0.4909  0.8933
  109OSM    C1F11184   6.997   3.989   7.103  0.1332  0.2619  0.8460
  109OSM     OF11185   7.026   3.910   7.190  0.6525  0.5338 -0.1594
  109OSM    C2F11186   7.091   4.097   7.069 -0.4838  0.4927 -0.0298
  109OSM    H2F11187   7.144   4.128   7.161 -0.9266 -1.6054  0.9972
  109OSM    H2G11188   7.037   4.186   7.032  0.9214  1.1460 -0.6171
  109OSM    C3F11189   7.217   4.057   6.972  0.6073 -0.7873 -0.5941
  109OSM    H3F11190   7.298   3.996   7.016 -1.7802 -4.0562 -0.3170
  109OSM    H3G11191   7.257   4.150   6.927 -0.9393  0.0567 -0.3031
  109OSM    C4F11192   7.168   3.967   6.858  0.3796 -0.3027 -0.1988
  109OSM    H4F11193   7.078   4.016   6.815 -0.8613 -3.0450 -0.9623
  109OSM    H4G11194   7.136   3.869   6.898 -2.2968  0.9483  0.9914
  109OSM    C5F11195   7.270   3.937   6.748 -0.6946 -0.4310  0.6971
  109OSM    H5F11196   7.353   3.880   6.795 -0.6510 -0.9445  0.0017
  109OSM    H5G11197   7.315   4.033   6.715  0.9108 -0.9459  1.3331
  109OSM    C6F11198   7.216   3.886   6.612  0.1893 -0.2687 -0.3779
  109OSM    H6F11199   7.135   3.949   6.570 -0.8198 -1.8990 -0.9712
  109OSM    H6G11200   7.171   3.787   6.636 -1.7582  0.6331 -0.1660
  109OSM    C7F11201   7.322   3.884   6.501  0.0946  0.0802  0.0803
  109OSM    H7F11202   7.388   3.795   6.517  1.5064  1.1712  0.5083
  109OSM    H7G11203   7.394   3.968   6.512  0.0221 -0.0932  2.5324
  109OSM    C8F11204   7.266   3.881   6.358 -0.0314  0.7159 -0.1722
  109OSM    H8F11205   7.174   3.821   6.377  0.8224 -0.6916 -0.3131
  109OSM    H8G11206   7.328   3.820   6.289 -0.6037  0.9014 -0.8709
  109OSM    C9F11207   7.227   4.020   6.306 -0.1667  0.0687  0.6642
  109OSM    H9F11208   7.141   4.070   6.355 -1.5300  0.0053 -1.5143
  109OSM   C10F11209   7.260   4.072   6.191  0.2748  0.1115  0.0895
  109OSM   H10F11210   7.209   4.165   6.161 -0.1961 -0.6436 -1.5608
  109OSM   C11F11211   7.356   4.017   6.088  0.6821  0.2940 -0.1305
  109OSM   H11F11212   7.368   3.906   6.094  3.5050  0.5160 -0.4166
  109OSM   H11G11213   7.457   4.051   6.119  0.9062 -0.8769  0.4892
  109OSM   C12F11214   7.313   4.059   5.944 -0.0503  0.3727 -0.2119
  109OSM   H12F11215   7.312   4.170   5.943 -0.5388  0.3684 -0.3437
  109OSM   H12G11216   7.209   4.023   5.932 -0.0533  1.0368 -2.7379
  109OSM   C13F11217   7.416   4.009   5.840 -0.3661  0.3407  0.3881
  109OSM   H13F11218   7.414   3.898   5.840  2.3467  0.2080  1.6960
  109OSM   H13G11219   7.522   4.038   5.858 -0.0857  0.0720 -0.7667
  109OSM   C14F11220   7.384   4.063   5.697  0.5060  0.7407 -0.3512
  109OSM   H14F11221   7.365   4.173   5.700 -1.0669  0.4893 -0.1492
  109OSM   H14G11222   7.293   4.008   5.665 -0.3805  1.1226  1.3986
  109OSM   C15F11223   7.492   4.037   5.594 -0.3894  0.2828 -0.7659
  109OSM   H15F11224   7.488   3.927   5.585  0.3406 -0.0079  1.7332
  109OSM   H15G11225   7.591   4.047   5.643 -0.9244 -1.3651  0.7485
  109OSM   C16F11226   7.462   4.089   5.456  0.0513 -0.1130 -0.0029
  109OSM   H16F11227   7.495   4.194   5.449  4.3227 -1.3453 -1.2581
  109OSM   H16G11228   7.356   4.065   5.430  0.7114 -2.9509 -0.4625
  109OSM   C17F11229   7.543   4.017   5.340  0.1337  0.0276 -0.5305
  109OSM   H17F11230   7.515   3.910   5.333 -2.5345  0.6440 -0.2949
  109OSM   H17G11231   7.653   4.009   5.348  0.1619 -0.6432 -1.5405
  109OSM   C18F11232   7.503   4.076   5.203 -0.5528  0.8115  0.2634
  109OSM   H18F11233   7.396   4.104   5.213 -0.2293  2.1364  0.2161
  109OSM   H18G11234   7.524   4.012   5.115 -2.4557  0.5717 -0.0560
  109OSM   H18H11235   7.540   4.180   5.190 -1.7336  1.1233 -0.7630
  110OSM      N11236   3.360   0.957   8.024 -0.3035 -0.4983 -0.4056
  110OSM    C1511237   3.487   0.975   8.100 -0.4537  0.5488 -0.1756
  110OSM   H15A11238   3.485   1.037   8.189 -0.7681 -0.3193  0.4371
  110OSM   H15B11239   3.569   1.004   8.036  0.5917 -1.6522  0.0479
  110OSM   H15C11240   3.524   0.885   8.147  1.5497  0.5836 -1.5547
  110OSM    C1411241   3.268   0.895   8.111  0.5569 -0.3437 -0.9938
  110OSM   H14A11242   3.165   0.891   8.080 -0.2422  1.2347  1.2408
  110OSM   H14B11243   3.262   0.947   8.205 -1.5478 -1.2725 -0.5437
  110OSM   H14C11244   3.299   0.798   8.148  2.6682  1.1007  1.3752
  110OSM    C1311245   3.306   1.092   7.984 -0.3000  0.8082  0.0707
  110OSM   H13A11246   3.297   1.150   8.075  1.0208  0.9649  0.1114
  110OSM   H13B11247   3.210   1.075   7.938  0.3227 -1.9692 -0.3642
  110OSM   H13C11248   3.374   1.140   7.915 -0.1502 -1.0920 -1.1762
  110OSM    C1211249   3.386   0.859   7.900  0.9528  0.3222 -0.5585
  110OSM   H12A11250   3.295   0.867   7.841  0.2121  3.8499  0.8112
  110OSM   H12B11251   3.404   0.761   7.942  2.7274  0.3519 -1.1989
  110OSM    C1111252   3.499   0.909   7.805 -0.8164 -0.2846  0.0542
  110OSM   H11A11253   3.482   1.012   7.768 -0.9083 -0.4684 -0.4227
  110OSM   H11B11254   3.483   0.857   7.708 -0.2651 -0.2953 -0.0331
  110OSM      P11255   3.727   0.774   7.828  0.7619  0.4590 -0.3112
  110OSM    O1311256   3.866   0.818   7.843  0.4156 -0.4679  0.1425
  110OSM    O1411257   3.688   0.654   7.910 -0.2195  0.0831 -0.7423
  110OSM    O1111258   3.691   0.749   7.676  0.0425 -0.2137  0.3332
  110OSM    O1211259   3.635   0.900   7.862 -0.0164  0.2924 -0.0792
  110OSM    C1S11260   3.737   0.842   7.571 -0.4236 -0.0170 -0.8635
  110OSM    H1S11261   3.847   0.853   7.577 -0.6130  2.6195 -1.0819
  110OSM    H1T11262   3.696   0.944   7.587  1.8621  0.9520 -0.8425
  110OSM     NF11263   3.767   0.894   7.336 -0.1670 -0.0588  0.0873
  110OSM    HNF11264   3.726   0.980   7.307 -2.1723 -1.2583 -0.8345
  110OSM    C2S11265   3.692   0.809   7.430  0.2745  0.7808  0.3082
  110OSM    H2S11266   3.722   0.705   7.406 -0.1931  0.6994  0.0476
  110OSM    C3S11267   3.535   0.827   7.414  0.0781  0.8583 -0.1327
  110OSM    H3S11268   3.503   0.923   7.460 -0.9417  0.3022  0.3257
  110OSM     O311269   3.467   0.728   7.490  0.3855  0.6606  0.0695
  110OSM    HO311270   3.535   0.699   7.552 -1.3475 -1.5773  1.0469
  110OSM    C4S11271   3.511   0.811   7.270  0.4002  0.2503 -0.2672
  110OSM    H4S11272   3.474   0.908   7.232  1.5975  0.3224 -1.3545
  110OSM    C5S11273   3.506   0.698   7.194 -0.5613 -0.3277 -0.4205
  110OSM    H5S11274   3.525   0.602   7.246  1.7140 -1.0507 -2.4277
  110OSM    C6S11275   3.470   0.687   7.050 -0.4937 -0.0483  0.4681
  110OSM    H6S11276   3.378   0.629   7.028 -2.5488  3.4842 -1.1112
  110OSM    H6T11277   3.542   0.633   6.985 -0.4451  2.6966 -1.9889
  110OSM    C7S11278   3.445   0.818   6.983  0.7030  0.5169  0.4086
  110OSM    H7S11279   3.520   0.898   6.997  1.7738 -0.5418  0.9179
  110OSM    H7T11280   3.351   0.858   7.026  0.8229  1.9086 -0.5772
  110OSM    C8S11281   3.407   0.797   6.836 -0.0009  0.6545  0.1902
  110OSM    H8S11282   3.330   0.718   6.828 -0.4297  1.2148 -1.8713
  110OSM    H8T11283   3.486   0.761   6.767  0.1208  2.9076 -0.9557
  110OSM    C9S11284   3.353   0.929   6.768 -0.1788 -0.3569  0.4377
  110OSM    H9S11285   3.436   1.003   6.766 -0.9247  0.4874  0.3803
  110OSM    H9T11286   3.272   0.974   6.829 -0.2873 -0.1426  0.1389
  110OSM   C10S11287   3.303   0.912   6.618  0.6859 -0.4788 -0.3994
  110OSM   H10S11288   3.295   1.011   6.568 -0.2355 -0.1242  0.4071
  110OSM   H10T11289   3.198   0.875   6.621  0.1147  1.1153  0.7186
  110OSM   C11S11290   3.391   0.806   6.537 -0.0111 -0.1981  0.0762
  110OSM   H11S11291   3.337   0.714   6.569  0.2398 -0.4556 -0.2266
  110OSM   H11T11292   3.495   0.811   6.575 -0.7588 -0.4710  2.3262
  110OSM   C12S11293   3.388   0.812   6.385  0.4871  0.5275 -0.4541
  110OSM   H12S11294   3.478   0.870   6.356  0.2542  0.6434 -0.9580
  110OSM   H12T11295   3.296   0.862   6.347  0.8478  0.7174 -1.0948
  110OSM   C13S11296   3.391   0.679   6.310  0.5546 -0.3326 -0.3153
  110OSM   H13S11297   3.296   0.624   6.323  0.2751  0.5082  1.4980
  110OSM   H13T11298   3.475   0.616   6.346  0.6276 -0.0278  0.0548
  110OSM   C14S11299   3.417   0.697   6.154  0.0448 -0.2776 -0.3475
  110OSM   H14S11300   3.521   0.736   6.143  0.8577 -1.1210  3.1300
  110OSM   H14T11301   3.342   0.762   6.106 -0.0281  0.2208  0.4215
  110OSM   C15S11302   3.406   0.564   6.090  0.4555  0.4962 -0.2902
  110OSM   H15S11303   3.316   0.507   6.120  0.9135 -1.4509 -2.2895
  110OSM   H15T11304   3.486   0.495   6.122  0.6053  0.3638 -0.9342
  110OSM   C16S11305   3.403   0.566   5.932  0.5217 -0.9619  0.4678
  110OSM   H16S11306   3.364   0.467   5.901 -3.0803  0.3355  0.2843
  110OSM   H16T11307   3.502   0.589   5.889  0.8689 -1.4892  0.9745
  110OSM   C17S11308   3.307   0.660   5.857  0.5849 -0.5260  0.3237
  110OSM   H17S11309   3.339   0.766   5.869 -0.4178  0.1650 -2.3650
  110OSM   H17T11310   3.205   0.654   5.902  0.2167 -2.3435 -0.6708
  110OSM   C18S11311   3.292   0.606   5.709 -0.2325  0.0212 -0.3004
  110OSM   H18S11312   3.201   0.644   5.657 -0.0566 -1.3218 -1.6454
  110OSM   H18T11313   3.279   0.497   5.698 -0.6581  0.1848 -1.6427
  110OSM   H18U11314   3.365   0.641   5.633 -2.0585  2.0116 -1.2744
  110OSM    C1F11315   3.896   0.866   7.302  0.7453  0.2015  0.4677
  110OSM     OF11316   3.948   0.760   7.329  0.3302 -0.2109  0.3922
  110OSM    C2F11317   3.975   0.974   7.232 -0.1636 -0.0502 -0.3702
  110OSM    H2F11318   4.050   1.016   7.303 -0.5364 -1.4310  0.8937
  110OSM    H2G11319   3.911   1.060   7.201  0.2989 -0.1037 -1.5237
  110OSM    C3F11320   4.057   0.922   7.112 -0.0542  0.0475 -1.0208
  110OSM    H3F11321   4.113   0.830   7.141 -3.8100 -2.0349  0.4769
  110OSM    H3G11322   4.133   0.998   7.087  1.1490 -1.2672 -1.5079
  110OSM    C4F11323   3.979   0.893   6.982 -0.1335  0.1852  0.5437
  110OSM    H4F11324   3.914   0.979   6.954 -1.4444 -0.1616  2.3519
  110OSM    H4G11325   3.902   0.815   6.999 -3.1739  3.3906  2.7719
  110OSM    C5F11326   4.057   0.845   6.857  0.3316  0.0753  0.3902
  110OSM    H5F11327   4.141   0.777   6.884 -0.6385 -0.1171  3.1678
  110OSM    H5G11328   4.099   0.933   6.804 -0.3821 -0.2456 -0.7527
  110OSM    C6F11329   3.966   0.764   6.761 -0.0535  0.0009  0.5445
  110OSM    H6F11330   3.871   0.809   6.727  0.6560  0.7576 -0.4862
  110OSM    H6G11331   3.945   0.669   6.815 -0.8139 -0.4192 -0.4658
  110OSM    C7F11332   4.056   0.746   6.631  0.4917 -0.1774 -0.1551
  110OSM    H7F11333   4.153   0.706   6.667 -0.2345 -1.3812  0.5184
  110OSM    H7G11334   4.079   0.838   6.573  0.1777  0.9792  1.5059
  110OSM    C8F11335   3.995   0.642   6.535  0.0579 -0.5813 -0.1761
  110OSM    H8F11336   3.984   0.550   6.595 -2.9985  0.5930  1.3069
  110OSM    H8G11337   4.074   0.613   6.463  0.3677  0.7503 -0.3962
  110OSM    C9F11338   3.859   0.690   6.475  0.6369 -0.7220  0.0756
  110OSM    H9F11339   3.791   0.741   6.545 -0.2660 -0.7415 -0.7700
  110OSM   C10F11340   3.813   0.671   6.354 -0.8846 -0.6333  0.4982
  110OSM   H10F11341   3.715   0.715   6.330 -0.2646 -0.4528 -2.0438
  110OSM   C11F11342   3.881   0.593   6.238  0.4779 -0.9565 -0.2917
  110OSM   H11F11343   3.832   0.494   6.224  1.1107 -1.0524 -2.1197
  110OSM   H11G11344   3.986   0.564   6.259  0.0701 -1.2890  1.4509
  110OSM   C12F11345   3.868   0.676   6.109  0.1013  0.4591 -0.0775
  110OSM   H12F11346   3.911   0.778   6.107 -2.1889  1.4619 -1.1660
  110OSM   H12G11347   3.760   0.688   6.087  0.1994  0.4310 -0.5714
  110OSM   C13F11348   3.938   0.592   6.000 -0.2156  0.3226 -0.3981
  110OSM   H13F11349   4.045   0.571   6.018 -0.0821  2.6786  2.2188
  110OSM   H13G11350   3.936   0.650   5.905 -1.4988  0.1659 -0.4854
  110OSM   C14F11351   3.858   0.470   5.962 -0.0103  0.5060 -0.2720
  110OSM   H14F11352   3.754   0.491   5.929  0.1852  0.5138 -0.8932
  110OSM   H14G11353   3.854   0.399   6.047 -1.4594 -0.0355 -0.7677
  110OSM   C15F11354   3.934   0.388   5.853 -0.5510 -0.0957  0.4968
  110OSM   H15F11355   3.879   0.294   5.832  0.0623  0.1134 -2.4256
  110OSM   H15G11356   4.034   0.367   5.895 -0.6105 -0.1092  0.6313
  110OSM   C16F11357   3.960   0.453   5.716 -0.3938  0.6107 -0.3946
  110OSM   H16F11358   4.038   0.532   5.712 -0.2828  0.6008  1.0513
  110OSM   H16G11359   3.873   0.502   5.668 -0.1280  0.0154 -1.5263
  110OSM   C17F11360   4.016   0.352   5.614  0.5857 -0.2663 -0.0071
  110OSM   H17F11361   4.030   0.399   5.514  0.6980  0.1499  0.2028
  110OSM   H17G11362   3.945   0.267   5.614  1.3392 -0.9091 -0.1526
  110OSM   C18F11363   4.153   0.298   5.642  0.4199  0.3875  0.7329
  110OSM   H18F11364   4.173   0.248   5.740  1.2142 -1.2885 -0.2371
  110OSM   H18G11365   4.228   0.379   5.643 -0.6418  1.4475 -1.1604
  110OSM   H18H11366   4.201   0.243   5.558  0.5080 -1.9307  2.1875
  111OSM      N11367   5.974   4.546   7.720 -0.4253 -0.2645 -0.6069
  111OSM    C1511368   5.909   4.505   7.590 -0.0782 -0.2168  0.0758
  111OSM   H15A11369   5.812   4.464   7.608 -0.5221 -1.3122 -3.8346
  111OSM   H15B11370   5.960   4.425   7.539  1.0662  1.3087 -1.3117
  111OSM   H15C11371   5.899   4.595   7.531  2.3773 -1.6863 -2.8910
  111OSM    C1411372   5.875   4.600   7.818  0.2325 -0.7702 -0.3389
  111OSM   H14A11373   5.807   4.525   7.856  1.4138 -1.1287  1.1608
  111OSM   H14B11374   5.818   4.682   7.776  0.0900 -0.0826  1.1375
  111OSM   H14C11375   5.931   4.632   7.904  0.0019 -0.4454 -0.3063
  111OSM    C1311376   6.019   4.423   7.788 -0.3066 -0.3377  0.4962
  111OSM   H13A11377   6.077   4.364   7.719  0.0947  1.2599 -0.5749
  111OSM   H13B11378   5.930   4.365   7.808 -0.1164 -0.9128 -0.2793
  111OSM   H13C11379   6.077   4.455   7.873 -1.5784  1.8747  0.6170
  111OSM    C1211380   6.072   4.651   7.706 -0.6847 -0.4938 -0.0407
  111OSM   H12A11381   6.156   4.611   7.651  1.7060 -3.3112  4.8664
  111OSM   H12B11382   6.117   4.657   7.804  1.0609 -3.8415 -0.4789
  111OSM    C1111383   6.030   4.793   7.649 -0.2690 -0.1464 -0.5428
  111OSM   H11A11384   6.121   4.857   7.646  0.0346 -0.5731 -0.5391
  111OSM   H11B11385   5.956   4.821   7.727 -1.8792 -0.7467 -1.7994
  111OSM      P11386   5.836   4.869   7.500  0.1814 -0.0519 -0.0892
  111OSM    O1311387   5.730   4.776   7.550  0.2679 -0.0033  0.2008
  111OSM    O1411388   5.846   5.003   7.554 -0.0546 -0.4739 -1.2732
  111OSM    O1111389   5.842   4.882   7.342  0.9492 -0.6956  0.1649
  111OSM    O1211390   5.967   4.788   7.520 -0.7396 -0.9096  0.0349
  111OSM    C1S11391   5.843   4.764   7.262  0.2129  0.1846  0.3091
  111OSM    H1S11392   5.750   4.704   7.274  0.1447  0.3882  0.8265
  111OSM    H1T11393   5.918   4.692   7.302  0.2754  0.5155  0.7964
  111OSM     NF11394   5.864   4.684   7.027  0.6928  0.0652  0.5315
  111OSM    HNF11395   5.948   4.630   7.025  0.0549 -0.9688  0.4391
  111OSM    C2S11396   5.859   4.800   7.114  0.0320  0.0507  0.1787
  111OSM    H2S11397   5.772   4.862   7.082  1.4098  1.4768 -0.9256
  111OSM    C3S11398   5.988   4.887   7.097  0.2586 -0.0181 -0.5486
  111OSM    H3S11399   6.071   4.814   7.093 -0.1895 -0.6691  1.2267
  111OSM     O311400   6.025   4.974   7.200 -0.2015 -0.5424 -0.0790
  111OSM    HO311401   5.955   4.954   7.264  0.4112  1.3767  1.2989
  111OSM    C4S11402   5.996   4.945   6.955  0.3682  0.0461 -0.1161
  111OSM    H4S11403   5.998   4.864   6.881 -2.4040 -0.1173 -0.1244
  111OSM    C5S11404   5.986   5.071   6.903 -0.2157 -0.7523 -0.0483
  111OSM    H5S11405   5.984   5.152   6.977 -0.0976 -1.0462  0.2796
  111OSM    C6S11406   6.008   5.107   6.758 -1.1909 -0.2813  0.1574
  111OSM    H6S11407   6.099   5.171   6.756 -0.7870 -0.7892  1.1689
  111OSM    H6T11408   5.932   5.178   6.720  0.3555  0.1079 -2.4258
  111OSM    C7S11409   6.031   4.996   6.662  0.0699  0.7573 -0.2663
  111OSM    H7S11410   5.935   4.940   6.661  1.3439 -1.5443 -0.3624
  111OSM    H7T11411   6.111   4.930   6.700  0.2253  1.4380  0.6059
  111OSM    C8S11412   6.053   5.023   6.521  0.0312 -0.8671  1.0414
  111OSM    H8S11413   6.153   5.065   6.497 -0.0194 -2.1227 -1.8637
  111OSM    H8T11414   5.982   5.104   6.491  1.2692 -0.4110 -0.8430
  111OSM    C9S11415   6.032   4.895   6.436  0.8337 -0.5596  0.0072
  111OSM    H9S11416   5.933   4.844   6.441  0.5781  0.0048  0.8555
  111OSM    H9T11417   6.109   4.822   6.467  0.7312 -1.1173 -0.9815
  111OSM   C10S11418   6.042   4.917   6.285  0.3798  0.2495  0.2907
  111OSM   H10S11419   6.120   4.989   6.253 -1.6430  1.6637 -1.8475
  111OSM   H10T11420   5.948   4.954   6.238  0.6952  1.0049  0.2308
  111OSM   C11S11421   6.070   4.779   6.223  0.4378 -1.2578  0.1192
  111OSM   H11S11422   5.985   4.707   6.223 -0.8546  0.1706  2.1664
  111OSM   H11T11423   6.157   4.732   6.275 -0.4493 -3.1368  0.0090
  111OSM   C12S11424   6.100   4.802   6.079  0.1909 -0.4108 -0.0841
  111OSM   H12S11425   6.198   4.854   6.076 -1.9073  3.9201 -1.6580
  111OSM   H12T11426   6.027   4.875   6.037  1.0406  0.1796 -0.5755
  111OSM   C13S11427   6.104   4.675   5.994  0.0877  0.3869  0.4808
  111OSM   H13S11428   6.001   4.634   5.995  0.6304 -1.0786 -0.3046
  111OSM   H13T11429   6.155   4.601   6.059 -0.6425  0.1692  0.8136
  111OSM   C14S11430   6.146   4.693   5.846 -0.0074 -0.2195  0.3224
  111OSM   H14S11431   6.184   4.600   5.799 -3.4748 -0.9454 -1.3330
  111OSM   H14T11432   6.225   4.771   5.854 -0.4628  0.1256  1.7260
  111OSM   C15S11433   6.052   4.771   5.744  0.2537  0.6523 -0.6318
  111OSM   H15S11434   6.107   4.765   5.647 -0.1309 -0.0294 -0.8106
  111OSM   H15T11435   6.029   4.874   5.779 -2.4215  0.4082 -1.4435
  111OSM   C16S11436   5.911   4.705   5.720 -0.1807 -0.0842  0.0845
  111OSM   H16S11437   5.848   4.701   5.811  2.0102  1.4746  1.8078
  111OSM   H16T11438   5.929   4.598   5.696  0.1607 -0.3336  1.3989
  111OSM   C17S11439   5.834   4.758   5.601 -0.3739  0.0805 -0.2877
  111OSM   H17S11440   5.891   4.773   5.506  2.1770 -2.3219  0.7462
  111OSM   H17T11441   5.794   4.853   5.642 -1.3700 -1.2680  2.0222
  111OSM   C18S11442   5.707   4.677   5.556 -0.5163 -0.3648 -0.3245
  111OSM   H18S11443   5.632   4.678   5.638  0.4570  0.8302  0.5850
  111OSM   H18T11444   5.746   4.574   5.540 -1.6308 -1.1679  1.7519
  111OSM   H18U11445   5.650   4.718   5.470  1.2696 -1.0122 -1.8740
  111OSM    C1F11446   5.741   4.620   7.015 -0.1047 -0.6879  0.2317
  111OSM     OF11447   5.633   4.681   7.013 -0.0578  0.1668  0.1391
  111OSM    C2F11448   5.740   4.471   7.018  0.0438  0.1568 -0.9499
  111OSM    H2F11449   5.713   4.450   7.124 -0.2263  1.6590 -0.7069
  111OSM    H2G11450   5.838   4.434   6.981 -0.8337  0.1908 -3.4831
  111OSM    C3F11451   5.639   4.407   6.922 -0.4293  0.7068 -0.1401
  111OSM    H3F11452   5.537   4.440   6.952 -0.6471 -0.3624  0.3662
  111OSM    H3G11453   5.651   4.297   6.929 -0.0264  0.5400 -2.6728
  111OSM    C4F11454   5.657   4.445   6.775  0.2118  0.0302  0.3261
  111OSM    H4F11455   5.630   4.552   6.763  3.8368  1.4612  3.1984
  111OSM    H4G11456   5.594   4.386   6.705  0.3775 -0.1164  0.3005
  111OSM    C5F11457   5.798   4.423   6.718 -0.4399  0.7715 -0.0117
  111OSM    H5F11458   5.832   4.325   6.759 -0.3444  0.4129 -0.9165
  111OSM    H5G11459   5.869   4.501   6.751  1.1352  0.3293 -2.1821
  111OSM    C6F11460   5.803   4.413   6.567  0.9444 -0.2514 -0.2323
  111OSM    H6F11461   5.761   4.313   6.544  2.4737 -1.0875  0.4417
  111OSM    H6G11462   5.910   4.394   6.541  0.8836 -0.3134 -0.4383
  111OSM    C7F11463   5.748   4.535   6.483 -0.3618 -0.2542  0.2389
  111OSM    H7F11464   5.810   4.626   6.495  0.5855 -0.7197 -0.9391
  111OSM    H7G11465   5.643   4.562   6.510 -0.6297  0.1152 -1.0728
  111OSM    C8F11466   5.753   4.489   6.334 -1.0002 -0.6701 -0.5909
  111OSM    H8F11467   5.851   4.446   6.306  0.1445  1.3054  0.1904
  111OSM    H8G11468   5.740   4.582   6.275  1.3118 -0.8279 -1.4498
  111OSM    C9F11469   5.640   4.406   6.291 -0.4423 -0.1872 -0.4765
  111OSM    H9F11470   5.555   4.407   6.361  0.3531 -0.8395  0.5387
  111OSM   C10F11471   5.638   4.332   6.186  0.0101 -0.1221  0.7796
  111OSM   H10F11472   5.544   4.284   6.152  0.6475 -0.2882 -0.8328
  111OSM   C11F11473   5.759   4.300   6.096  0.1385 -0.3670  0.1182
  111OSM   H11F11474   5.757   4.190   6.077 -1.3360 -0.2650 -0.4136
  111OSM   H11G11475   5.854   4.320   6.149  1.0307  0.0058 -1.5417
  111OSM   C12F11476   5.755   4.356   5.957 -0.5786 -0.2429 -0.0476
  111OSM   H12F11477   5.855   4.368   5.911 -0.9217  0.7088 -0.5916
  111OSM   H12G11478   5.710   4.457   5.969  2.4528  1.1432  0.4501
  111OSM   C13F11479   5.642   4.284   5.877 -0.2701 -0.0101 -0.5180
  111OSM   H13F11480   5.539   4.302   5.915 -1.0405  1.2913 -2.9723
  111OSM   H13G11481   5.661   4.176   5.897 -3.7335 -0.5107  0.7544
  111OSM   C14F11482   5.622   4.328   5.731 -1.0410  0.6106  0.9272
  111OSM   H14F11483   5.602   4.437   5.726  2.3752  1.2769 -1.5285
  111OSM   H14G11484   5.537   4.277   5.679 -0.3319  0.3192  0.0261
  111OSM   C15F11485   5.743   4.289   5.642 -0.7118 -0.6325  0.5539
  111OSM   H15F11486   5.776   4.188   5.674  1.8768  0.5719  1.9611
  111OSM   H15G11487   5.811   4.373   5.665 -1.5655 -0.2149  1.6504
  111OSM   C16F11488   5.708   4.277   5.495 -0.3713 -0.1285  0.6209
  111OSM   H16F11489   5.678   4.379   5.461 -1.8264 -0.5544  0.5604
  111OSM   H16G11490   5.613   4.219   5.485 -0.5777 -0.3414  3.1207
  111OSM   C17F11491   5.825   4.230   5.411  0.3016 -0.2540 -0.2353
  111OSM   H17F11492   5.795   4.227   5.304  0.7897  2.0024 -0.4988
  111OSM   H17G11493   5.842   4.124   5.436  2.2543  0.1947  0.4886
  111OSM   C18F11494   5.952   4.311   5.417  0.3198  0.2757  0.4401
  111OSM   H18F11495   6.037   4.253   5.375 -0.4360 -1.3118  1.0289
  111OSM   H18G11496   5.984   4.343   5.519 -2.1929 -0.7808  1.6361
  111OSM   H18H11497   5.940   4.401   5.352  0.4222 -0.3263 -0.4209
  112OSM      N11498   3.319   2.321   7.563  0.6969 -0.1406  0.1712
  112OSM    C1511499   3.440   2.373   7.501  0.0810  0.1576  0.1665
  112OSM   H15A11500   3.434   2.469   7.451  2.5082  0.6723  0.7147
  112OSM   H15B11501   3.489   2.302   7.435 -0.3007  0.1492 -0.1134
  112OSM   H15C11502   3.511   2.380   7.581 -0.5408 -1.4649  0.9108
  112OSM    C1411503   3.272   2.422   7.666 -0.3531  0.4926  0.0743
  112OSM   H14A11504   3.190   2.388   7.728 -0.5684  2.1198  0.7409
  112OSM   H14B11505   3.222   2.508   7.624  0.5320  2.1674  2.2499
  112OSM   H14C11506   3.355   2.454   7.727 -0.1798 -0.5178  0.3788
  112OSM    C1311507   3.215   2.305   7.460  1.1186 -0.5509 -0.6760
  112OSM   H13A11508   3.132   2.244   7.491 -0.9855  0.9273 -3.0509
  112OSM   H13B11509   3.244   2.263   7.365  1.0173  1.5841 -1.7218
  112OSM   H13C11510   3.178   2.405   7.442  0.1784  0.2286  4.2944
  112OSM    C1211511   3.359   2.188   7.627  0.8125 -0.3695  0.3466
  112OSM   H12A11512   3.266   2.139   7.654 -0.0191  0.6350 -0.5614
  112OSM   H12B11513   3.412   2.204   7.719 -1.5960  2.3090  1.4395
  112OSM    C1111514   3.440   2.083   7.537 -0.2899  0.2536 -0.5510
  112OSM   H11A11515   3.384   2.064   7.443 -0.1747 -0.4030 -0.4927
  112OSM   H11B11516   3.442   1.984   7.588  1.5224  0.0612 -0.9170
  112OSM      P11517   3.696   2.098   7.587  0.3370  0.1036  0.0833
  112OSM    O1311518   3.801   2.183   7.527  0.0541  0.5613  0.0876
  112OSM    O1411519   3.662   2.109   7.731  0.2470 -0.7288  0.3039
  112OSM    O1111520   3.722   1.947   7.556 -0.2307  0.4155  0.9417
  112OSM    O1211521   3.570   2.129   7.500 -0.1732 -0.0315  0.2902
  112OSM    C1S11522   3.725   1.900   7.420  0.0773  0.1228 -0.1802
  112OSM    H1S11523   3.674   1.959   7.341 -0.1353  0.6202  0.3229
  112OSM    H1T11524   3.690   1.795   7.418  1.1942 -0.3021  1.0774
  112OSM     NF11525   3.877   1.854   7.235  0.2022  0.2712  0.3014
  112OSM    HNF11526   3.902   1.759   7.222  0.0490  0.2995 -0.2054
  112OSM    C2S11527   3.872   1.894   7.373 -1.0398 -0.9801 -0.2246
  112OSM    H2S11528   3.925   1.991   7.381  3.0858 -3.0659  0.5363
  112OSM    C3S11529   3.964   1.805   7.457 -0.0512  0.1023  0.0860
  112OSM    H3S11530   3.925   1.701   7.459 -0.2957  0.1324 -1.5900
  112OSM     O311531   3.969   1.856   7.592 -0.3372  0.1291  0.5937
  112OSM    HO311532   3.886   1.904   7.589 -0.2231  0.2939 -0.9209
  112OSM    C4S11533   4.102   1.796   7.396 -0.3507 -1.1502 -0.1131
  112OSM    H4S11534   4.157   1.891   7.393 -0.4131 -1.1337 -1.1265
  112OSM    C5S11535   4.154   1.691   7.327  0.5562  0.0091 -0.1305
  112OSM    H5S11536   4.100   1.595   7.337  0.9403 -0.3358 -1.2278
  112OSM    C6S11537   4.284   1.688   7.249  0.0272 -0.4055  0.0785
  112OSM    H6S11538   4.342   1.607   7.299 -2.1372 -1.9090  0.2800
  112OSM    H6T11539   4.341   1.783   7.243 -0.8906  0.0979 -1.5254
  112OSM    C7S11540   4.250   1.648   7.102  0.1227  0.4323 -0.4822
  112OSM    H7S11541   4.192   1.729   7.053 -1.1470 -1.3899 -2.1438
  112OSM    H7T11542   4.193   1.553   7.101  3.0107 -1.4816  0.7700
  112OSM    C8S11543   4.378   1.612   7.031  0.5857  0.6079 -0.8710
  112OSM    H8S11544   4.444   1.556   7.101  0.8555  1.0651 -0.7562
  112OSM    H8T11545   4.439   1.704   7.018  1.8722  0.2058  1.6416
  112OSM    C9S11546   4.363   1.533   6.898  0.1828  0.2738 -0.2435
  112OSM    H9S11547   4.287   1.453   6.908 -0.5528  0.6980 -2.0603
  112OSM    H9T11548   4.464   1.492   6.874  0.9185  0.8030  1.7250
  112OSM   C10S11549   4.323   1.639   6.790 -0.5239  0.2602  0.1573
  112OSM   H10S11550   4.402   1.712   6.762  0.4358 -0.5500  0.6905
  112OSM   H10T11551   4.241   1.703   6.826 -1.5514 -0.2964 -1.1106
  112OSM   C11S11552   4.276   1.564   6.664  0.3764  0.7475 -0.2575
  112OSM   H11S11553   4.192   1.625   6.625 -0.5450  2.2561  3.7188
  112OSM   H11T11554   4.240   1.462   6.690  0.8202  0.9765  1.3635
  112OSM   C12S11555   4.392   1.545   6.565  0.0508  0.0432  0.4867
  112OSM   H12S11556   4.471   1.490   6.620 -0.8013 -1.7664  0.0102
  112OSM   H12T11557   4.424   1.644   6.528  1.5263 -1.4022 -2.4935
  112OSM   C13S11558   4.370   1.476   6.433  0.0760 -0.3357 -0.7922
  112OSM   H13S11559   4.306   1.386   6.441  1.0362 -1.1018 -1.5206
  112OSM   H13T11560   4.472   1.440   6.409  0.7385  0.0912  1.2060
  112OSM   C14S11561   4.307   1.552   6.315  0.1909  0.1931  0.2879
  112OSM   H14S11562   4.367   1.641   6.286 -1.4615  2.1204  2.4483
  112OSM   H14T11563   4.209   1.587   6.353 -0.4281 -1.4062  0.2487
  112OSM   C15S11564   4.285   1.465   6.192 -0.0656  0.1013  0.3346
  112OSM   H15S11565   4.246   1.366   6.222  2.7030 -0.8763  1.0303
  112OSM   H15T11566   4.382   1.439   6.144 -0.6055 -1.3101 -0.0189
  112OSM   C16S11567   4.186   1.527   6.077 -0.1751 -0.2923 -0.2716
  112OSM   H16S11568   4.242   1.618   6.044  0.6454 -0.8424 -0.4350
  112OSM   H16T11569   4.086   1.557   6.116 -0.5603  1.3834 -2.3137
  112OSM   C17S11570   4.179   1.446   5.952  0.4362  0.2699  0.4676
  112OSM   H17S11571   4.278   1.398   5.938  0.2932  0.1363 -0.1279
  112OSM   H17T11572   4.164   1.520   5.870 -1.7698  1.9691  2.2834
  112OSM   C18S11573   4.054   1.346   5.947  0.2385  0.0517  0.4768
  112OSM   H18S11574   3.961   1.397   5.978  0.4968  0.1489  1.1200
  112OSM   H18T11575   4.070   1.258   6.013  0.3531  0.3197  0.8110
  112OSM   H18U11576   4.056   1.314   5.841  0.5992 -4.5229  1.6497
  112OSM    C1F11577   3.837   1.931   7.136 -0.5307 -0.9628 -0.7558
  112OSM     OF11578   3.822   2.048   7.167  0.8835 -0.3623  0.4115
  112OSM    C2F11579   3.813   1.876   7.005  0.2122 -0.2373  0.6274
  112OSM    H2F11580   3.730   1.803   7.019  0.8903 -1.0025  0.7319
  112OSM    H2G11581   3.899   1.818   6.966 -0.9850 -0.5535 -1.7636
  112OSM    C3F11582   3.750   1.975   6.899  0.2167 -1.1060  0.2594
  112OSM    H3F11583   3.823   2.057   6.882 -0.2950 -0.3860  1.3719
  112OSM    H3G11584   3.654   2.024   6.928  0.3811  1.0941 -2.4413
  112OSM    C4F11585   3.735   1.899   6.763 -0.3921 -0.4720 -0.4415
  112OSM    H4F11586   3.634   1.856   6.749 -0.2378 -0.2297 -2.7411
  112OSM    H4G11587   3.817   1.824   6.764  1.8236  1.8203  0.9943
  112OSM    C5F11588   3.765   1.990   6.643 -0.1099 -0.1902  0.1355
  112OSM    H5F11589   3.859   2.047   6.657  0.2596 -0.8398  0.3281
  112OSM    H5G11590   3.673   2.053   6.642  0.0858  0.1253  0.9654
  112OSM    C6F11591   3.793   1.919   6.511  0.2753 -0.6638 -0.1174
  112OSM    H6F11592   3.785   1.991   6.427 -0.2084  1.0335  1.3086
  112OSM    H6G11593   3.709   1.846   6.503 -1.1680  0.9145  0.0409
  112OSM    C7F11594   3.932   1.855   6.507  0.6943 -0.9183  0.3628
  112OSM    H7F11595   3.945   1.785   6.592 -0.7726  0.4290  1.7819
  112OSM    H7G11596   4.010   1.933   6.519 -0.3881  0.6394 -1.9994
  112OSM    C8F11597   3.963   1.778   6.379 -0.0283 -0.7699  0.4557
  112OSM    H8F11598   3.892   1.693   6.377 -0.0286 -0.7626  0.2046
  112OSM    H8G11599   4.067   1.750   6.409 -0.1708 -0.4662  1.2604
  112OSM    C9F11600   3.962   1.861   6.252  0.2735  0.1182  0.2733
  112OSM    H9F11601   4.009   1.960   6.257  4.2042 -1.5365 -0.0254
  112OSM   C10F11602   3.887   1.839   6.135 -0.1637 -0.1041  0.4519
  112OSM   H10F11603   3.900   1.911   6.052  2.6581  0.8879  1.6409
  112OSM   C11F11604   3.810   1.713   6.110  0.1991 -0.1108  0.7122
  112OSM   H11F11605   3.701   1.722   6.130  0.2136  0.7508  0.4554
  112OSM   H11G11606   3.860   1.629   6.162  2.2973  1.0733  0.7027
  112OSM   C12F11607   3.805   1.669   5.961  0.4258  0.2847 -0.2527
  112OSM   H12F11608   3.908   1.662   5.919  0.9865 -0.7472  1.2275
  112OSM   H12G11609   3.758   1.753   5.905  0.4288  0.1060 -0.5254
  112OSM   C13F11610   3.720   1.540   5.934 -0.3879  0.2576 -0.4400
  112OSM   H13F11611   3.717   1.480   6.027  0.6706  0.2578 -0.3962
  112OSM   H13G11612   3.752   1.478   5.847 -0.8923  0.6023 -0.8787
  112OSM   C14F11613   3.577   1.584   5.906  0.5095 -0.2579  0.7864
  112OSM   H14F11614   3.563   1.647   5.816 -1.1375  2.6884  2.9638
  112OSM   H14G11615   3.542   1.636   5.997 -3.7580 -1.7199  0.2063
  112OSM   C15F11616   3.482   1.465   5.879 -0.0668 -0.0502  0.3439
  112OSM   H15F11617   3.392   1.491   5.939 -0.1576  0.6125 -0.0704
  112OSM   H15G11618   3.538   1.375   5.914  3.2338  0.5138 -2.8989
  112OSM   C16F11619   3.467   1.429   5.726  0.6398 -0.5560 -0.3544
  112OSM   H16F11620   3.553   1.372   5.683 -0.5911 -3.2962  0.5655
  112OSM   H16G11621   3.442   1.514   5.659 -1.3203 -0.3924  0.5270
  112OSM   C17F11622   3.347   1.340   5.693  0.2983  0.6110 -0.4379
  112OSM   H17F11623   3.251   1.393   5.711  1.2014  1.6726  1.5864
  112OSM   H17G11624   3.355   1.248   5.756  2.5266  0.1969 -1.2347
  112OSM   C18F11625   3.325   1.295   5.543  0.1666  0.4810 -0.2375
  112OSM   H18F11626   3.225   1.251   5.522  0.3514  0.4811 -1.1917
  112OSM   H18G11627   3.397   1.214   5.520 -1.0524  0.0949 -3.1252
  112OSM   H18H11628   3.336   1.381   5.473  0.3578  0.3023 -0.4304
  113OSM      N11629   6.479   3.040   7.418  0.1966  0.2114 -0.2735
  113OSM    C1511630   6.581   3.104   7.336  0.6371  0.1326  0.2467
  113OSM   H15A11631   6.537   3.174   7.267 -1.1189 -1.4542 -0.3160
  113OSM   H15B11632   6.660   3.041   7.296  2.0733  1.1776  1.3051
  113OSM   H15C11633   6.642   3.171   7.396 -0.7232  1.3406  0.3235
  113OSM    C1411634   6.426   2.917   7.344  0.6987  0.7778  0.6382
  113OSM   H14A11635   6.356   2.869   7.411  2.0492  0.3096  1.7758
  113OSM   H14B11636   6.506   2.845   7.327  1.4354  1.4292  1.2661
  113OSM   H14C11637   6.376   2.959   7.259  0.6536  0.3631  0.4534
  113OSM    C1311638   6.547   2.978   7.539 -0.3213 -0.1354  0.1188
  113OSM   H13A11639   6.480   2.911   7.591 -1.4238  0.9557  0.1380
  113OSM   H13B11640   6.577   3.049   7.615 -0.2749 -1.0784  1.0009
  113OSM   H13C11641   6.638   2.924   7.515 -0.2980 -0.2181  0.3950
  113OSM    C1211642   6.372   3.138   7.461 -0.0577 -0.6746 -0.0338
  113OSM   H12A11643   6.331   3.176   7.369  0.5617  2.0448  0.7166
  113OSM   H12B11644   6.418   3.222   7.510 -0.7572  0.6525 -1.5681
  113OSM    C1111645   6.252   3.089   7.545  0.0249  1.0095 -0.2783
  113OSM   H11A11646   6.199   3.178   7.586  0.4421  0.5981  1.2258
  113OSM   H11B11647   6.286   3.045   7.641 -1.5794  1.0993  0.3585
  113OSM      P11648   6.056   3.059   7.383  0.0549 -0.2152  0.4549
  113OSM    O1311649   5.942   3.087   7.469 -0.2765 -0.3235 -0.2762
  113OSM    O1411650   6.106   3.170   7.301 -0.4948  0.1331 -0.1117
  113OSM    O1111651   6.028   2.938   7.288  0.3721  0.7458  0.4483
  113OSM    O1211652   6.180   2.996   7.471  0.5697 -0.3690  0.0317
  113OSM    C1S11653   5.892   2.909   7.251 -1.0408  0.8347 -0.2042
  113OSM    H1S11654   5.845   3.000   7.208 -1.4771 -0.1525 -1.9034
  113OSM    H1T11655   5.830   2.872   7.334 -1.1711  0.6700 -0.3734
  113OSM     NF11656   5.751   2.784   7.098 -0.9002  0.9037 -0.1543
  113OSM    HNF11657   5.695   2.709   7.132 -0.9627  1.3595  0.7831
  113OSM    C2S11658   5.888   2.792   7.150  0.1896  0.2705  0.8687
  113OSM    H2S11659   5.960   2.821   7.071  2.6721 -1.8920  2.1855
  113OSM    C3S11660   5.939   2.666   7.219 -0.3720 -0.1800  0.7419
  113OSM    H3S11661   5.875   2.622   7.298  1.3461 -2.6695  0.8955
  113OSM     O311662   6.064   2.686   7.281 -0.3375 -0.0236  0.4361
  113OSM    HO311663   6.073   2.781   7.274 -0.4313 -0.1341 -2.1642
  113OSM    C4S11664   5.957   2.553   7.124  0.1925  0.0122  0.6116
  113OSM    H4S11665   5.865   2.526   7.070  1.5989 -1.3157 -1.2430
  113OSM    C5S11666   6.072   2.511   7.072 -0.0492 -0.2836 -0.5562
  113OSM    H5S11667   6.168   2.560   7.092 -0.9930  0.4815  2.7327
  113OSM    C6S11668   6.078   2.405   6.962  1.0354 -0.0997 -0.1877
  113OSM    H6S11669   5.980   2.353   6.965  0.8477  0.2892  1.9404
  113OSM    H6T11670   6.154   2.328   6.987  0.7683 -0.4100 -0.3267
  113OSM    C7S11671   6.095   2.461   6.813  0.0391  0.2399 -0.1004
  113OSM    H7S11672   6.183   2.529   6.807  0.3229  0.1371  2.2840
  113OSM    H7T11673   6.004   2.523   6.795 -1.0107 -1.4597 -0.9191
  113OSM    C8S11674   6.082   2.353   6.704  0.2893  0.1366  0.3471
  113OSM    H8S11675   6.007   2.277   6.735  1.1707 -1.0295 -0.2702
  113OSM    H8T11676   6.170   2.285   6.707 -0.1350 -0.4388 -0.1513
  113OSM    C9S11677   6.048   2.406   6.564  0.0879  1.0104  0.1401
  113OSM    H9S11678   6.126   2.483   6.548  1.0710 -0.2247 -1.2119
  113OSM    H9T11679   5.948   2.455   6.573 -0.1681  0.3878  0.7861
  113OSM   C10S11680   6.041   2.289   6.458 -0.4939  0.5031 -0.4085
  113OSM   H10S11681   5.964   2.216   6.491 -0.1181  0.0458 -0.5440
  113OSM   H10T11682   6.138   2.236   6.450 -1.3664 -1.1264 -0.6671
  113OSM   C11S11683   6.012   2.335   6.319 -0.5332  0.4396  0.0275
  113OSM   H11S11684   6.024   2.444   6.305  1.7484  0.2059 -0.2868
  113OSM   H11T11685   5.907   2.321   6.285 -0.4458  0.3331 -0.2028
  113OSM   C12S11686   6.102   2.259   6.217  0.0816  0.6751  0.2337
  113OSM   H12S11687   6.103   2.152   6.244 -0.6464  0.5325 -0.2821
  113OSM   H12T11688   6.201   2.309   6.224  0.5936 -0.1697 -0.7696
  113OSM   C13S11689   6.061   2.265   6.077  0.1597 -0.2598 -0.6373
  113OSM   H13S11690   6.047   2.369   6.043 -0.4759 -0.9320 -2.5703
  113OSM   H13T11691   5.965   2.215   6.052 -1.2798  3.0635 -2.4086
  113OSM   C14S11692   6.152   2.184   5.981 -0.0345  0.0103 -0.0741
  113OSM   H14S11693   6.158   2.082   6.024  0.5540  1.0162  2.3948
  113OSM   H14T11694   6.257   2.220   5.985  0.0947 -0.3201 -0.4374
  113OSM   C15S11695   6.106   2.167   5.839 -0.2899 -0.0451 -0.0055
  113OSM   H15S11696   6.015   2.102   5.839 -1.8341  2.0149  0.7240
  113OSM   H15T11697   6.184   2.118   5.777  1.5000  1.9272  0.6031
  113OSM   C16S11698   6.072   2.304   5.766  0.2641  0.3256 -0.3713
  113OSM   H16S11699   6.164   2.367   5.759 -0.2925  1.1846 -0.1017
  113OSM   H16T11700   5.984   2.343   5.821  1.5331 -0.1875  2.1461
  113OSM   C17S11701   6.028   2.268   5.627 -0.2947  0.4541  0.5002
  113OSM   H17S11702   5.931   2.217   5.647 -0.3452  0.8805  1.3886
  113OSM   H17T11703   6.095   2.197   5.575  0.5898  0.6829  1.3032
  113OSM   C18S11704   5.982   2.377   5.532 -0.2322 -0.3700 -0.1749
  113OSM   H18S11705   5.961   2.337   5.431 -1.9234 -1.6903  0.6525
  113OSM   H18T11706   6.064   2.450   5.516 -0.3546 -0.1040  0.3786
  113OSM   H18U11707   5.898   2.441   5.569  2.1815  2.6663  0.4964
  113OSM    C1F11708   5.690   2.878   7.029 -0.4811  0.0165  0.3835
  113OSM     OF11709   5.749   2.980   6.998  0.1938  0.0800  0.0969
  113OSM    C2F11710   5.547   2.853   6.996 -0.0390 -0.0211 -0.2581
  113OSM    H2F11711   5.477   2.893   7.072  0.7565 -1.4387  1.3034
  113OSM    H2G11712   5.509   2.749   7.009 -0.3270  0.1712  0.4962
  113OSM    C3F11713   5.515   2.910   6.851 -0.8577  0.1017  0.6921
  113OSM    H3F11714   5.569   2.843   6.781 -3.0212  0.2120 -1.1970
  113OSM    H3G11715   5.554   3.014   6.848 -0.1745 -0.0504  2.7573
  113OSM    C4F11716   5.373   2.873   6.822 -0.0704 -0.0277 -0.7720
  113OSM    H4F11717   5.296   2.912   6.893 -0.9683  2.4200 -2.9392
  113OSM    H4G11718   5.365   2.765   6.847 -2.2100  0.1172 -0.6403
  113OSM    C5F11719   5.315   2.910   6.686  0.3291  0.6977  0.1262
  113OSM    H5F11720   5.373   2.843   6.618 -0.0308  1.4496 -0.9393
  113OSM    H5G11721   5.336   3.012   6.648 -1.1873  1.6876  1.7708
  113OSM    C6F11722   5.166   2.888   6.658 -0.5622  0.2826 -0.0391
  113OSM    H6F11723   5.162   2.780   6.687  0.9953 -1.2390 -4.6084
  113OSM    H6G11724   5.130   2.899   6.554 -3.9527  0.7548  1.0359
  113OSM    C7F11725   5.077   2.973   6.751 -0.4657  0.6097  0.4276
  113OSM    H7F11726   5.123   3.072   6.769 -2.6361  1.8878 -0.6251
  113OSM    H7G11727   5.069   2.912   6.844  2.6394 -1.1173 -0.3010
  113OSM    C8F11728   4.933   3.003   6.704  0.0955  0.4505 -0.6546
  113OSM    H8F11729   4.948   3.059   6.609 -0.2203 -0.3921 -1.2147
  113OSM    H8G11730   4.898   3.068   6.786  0.9530  1.4965 -1.0939
  113OSM    C9F11731   4.846   2.876   6.691  0.2944 -0.8149  0.8023
  113OSM    H9F11732   4.840   2.817   6.783  0.3787 -0.2750  1.1564
  113OSM   C10F11733   4.788   2.834   6.574  0.1873 -0.0214  0.7482
  113OSM   H10F11734   4.711   2.755   6.581 -2.4724  2.5305  2.3192
  113OSM   C11F11735   4.787   2.924   6.447  0.3141 -0.1413 -0.7738
  113OSM   H11F11736   4.853   3.011   6.465  0.7297 -1.0192  2.4105
  113OSM   H11G11737   4.689   2.969   6.418  0.5392  1.0206  0.1835
  113OSM   C12F11738   4.840   2.843   6.327 -0.7874 -0.1790  0.1571
  113OSM   H12F11739   4.834   2.732   6.338  1.6451 -0.2624  1.0581
  113OSM   H12G11740   4.949   2.860   6.320 -0.9362  0.1584 -2.0161
  113OSM   C13F11741   4.784   2.875   6.186 -0.4946 -0.6779  0.4673
  113OSM   H13F11742   4.674   2.858   6.188 -0.7453  0.1142 -2.7156
  113OSM   H13G11743   4.820   2.797   6.116  4.1667  0.3531  1.3682
  113OSM   C14F11744   4.822   3.021   6.149  0.7024  0.0433 -0.1844
  113OSM   H14F11745   4.930   3.028   6.125  1.3130 -0.4246  2.1738
  113OSM   H14G11746   4.804   3.085   6.238  2.5153 -0.9519  0.9529
  113OSM   C15F11747   4.752   3.085   6.024  0.1321 -0.6179 -0.0905
  113OSM   H15F11748   4.788   3.190   6.019 -2.2967  0.2686 -0.4418
  113OSM   H15G11749   4.643   3.082   6.043  0.0693  0.2616 -0.2453
  113OSM   C16F11750   4.794   3.015   5.895 -0.3639  0.4452  0.1488
  113OSM   H16F11751   4.758   2.910   5.899  2.1830 -0.5657 -1.2996
  113OSM   H16G11752   4.904   3.001   5.897 -0.3789  0.3827  1.6622
  113OSM   C17F11753   4.738   3.080   5.766 -0.6814 -0.4302 -0.6465
  113OSM   H17F11754   4.627   3.084   5.767 -0.8125  1.1789 -4.7171
  113OSM   H17G11755   4.771   3.012   5.685 -1.3348 -1.1083 -0.3539
  113OSM   C18F11756   4.781   3.228   5.743  0.3753  0.7477  0.3100
  113OSM   H18F11757   4.735   3.291   5.822  0.0262  0.7992  0.0717
  113OSM   H18G11758   4.748   3.262   5.642  1.0985 -0.2905 -0.2895
  113OSM   H18H11759   4.891   3.235   5.742  0.4351 -0.1326 -0.3521
  114OSM      N11760   4.681   1.341   7.909 -0.4699 -0.6158  1.2673
  114OSM    C1511761   4.732   1.272   8.032  0.6343  0.1830 -0.0705
  114OSM   H15A11762   4.682   1.177   8.040  1.3821 -0.2494 -0.5053
  114OSM   H15B11763   4.700   1.328   8.119  0.4309  1.4712 -0.9446
  114OSM   H15C11764   4.839   1.259   8.027  0.7134 -2.6183  3.8427
  114OSM    C1411765   4.732   1.265   7.795  0.0263  0.0546 -0.1140
  114OSM   H14A11766   4.838   1.278   7.778  0.6568 -4.2103 -0.5112
  114OSM   H14B11767   4.687   1.286   7.699 -1.5126 -1.9866  0.0945
  114OSM   H14C11768   4.711   1.161   7.812 -2.4245  0.4584 -0.2407
  114OSM    C1311769   4.540   1.348   7.915  0.8486  0.1273  0.2497
  114OSM   H13A11770   4.501   1.430   7.973  1.2938  1.2968 -1.0617
  114OSM   H13B11771   4.497   1.252   7.941  2.1527 -1.1882 -2.1052
  114OSM   H13C11772   4.502   1.353   7.814  0.5135  1.7317  0.4295
  114OSM    C1211773   4.732   1.486   7.903 -0.2912  0.2632  0.1383
  114OSM   H12A11774   4.838   1.474   7.889 -0.4996 -1.5029 -0.1255
  114OSM   H12B11775   4.710   1.533   7.998  0.6757  1.1560 -0.0635
  114OSM    C1111776   4.676   1.574   7.792  0.1771  0.0654 -0.8524
  114OSM   H11A11777   4.706   1.680   7.792  2.2757 -0.4633 -2.5339
  114OSM   H11B11778   4.565   1.574   7.803 -0.0555  2.7853 -2.4034
  114OSM      P11779   4.849   1.533   7.595  0.2233 -0.3920 -0.1877
  114OSM    O1311780   4.838   1.657   7.513  0.3368  0.3465  0.5474
  114OSM    O1411781   4.958   1.527   7.691  0.3332  0.0848  0.1169
  114OSM    O1111782   4.860   1.412   7.497  0.6563  0.7894 -0.2961
  114OSM    O1211783   4.707   1.519   7.663 -0.5815  0.6289 -0.4416
  114OSM    C1S11784   4.764   1.402   7.395 -0.6765  0.1808 -0.4861
  114OSM    H1S11785   4.738   1.502   7.353  0.1226  0.9616  0.8224
  114OSM    H1T11786   4.673   1.359   7.443 -0.2767  0.9398  1.0252
  114OSM     NF11787   4.760   1.351   7.149  0.1120  0.3462 -0.4711
  114OSM    HNF11788   4.675   1.308   7.119 -0.1999  0.2713  0.4915
  114OSM    C2S11789   4.809   1.307   7.281 -0.1133  0.6916  0.0354
  114OSM    H2S11790   4.919   1.324   7.280  0.1641 -0.8538  0.6360
  114OSM    C3S11791   4.790   1.161   7.314  0.0302  0.1106 -0.2861
  114OSM    H3S11792   4.683   1.148   7.337  0.6478 -0.2347  2.7334
  114OSM     O311793   4.849   1.120   7.440 -0.0615 -0.2041  0.3687
  114OSM    HO311794   4.892   1.200   7.470  4.5543 -2.0310 -0.5289
  114OSM    C4S11795   4.829   1.072   7.200  0.3193 -0.6813  0.1062
  114OSM    H4S11796   4.769   1.083   7.108  1.7338 -1.0230 -0.8938
  114OSM    C5S11797   4.942   0.993   7.199  0.1628 -0.2853  0.0443
  114OSM    H5S11798   5.012   1.000   7.283 -0.5731  1.0933  0.5871
  114OSM    C6S11799   4.982   0.907   7.081  0.1513 -0.3379  0.1136
  114OSM    H6S11800   4.970   0.800   7.107 -1.7802 -1.0622 -3.1899
  114OSM    H6T11801   5.090   0.927   7.066  0.1240  0.2010  0.6076
  114OSM    C7S11802   4.904   0.944   6.946 -0.4402  1.2645  0.6877
  114OSM    H7S11803   4.795   0.955   6.964 -0.8486  0.4240 -1.0281
  114OSM    H7T11804   4.930   0.856   6.883  2.2517  2.3262  0.1879
  114OSM    C8S11805   4.958   1.067   6.864  0.1395 -0.1510  0.8579
  114OSM    H8S11806   5.066   1.063   6.838  0.3461  1.6284  1.2711
  114OSM    H8T11807   4.936   1.161   6.920 -0.6093  1.5859 -2.1589
  114OSM    C9S11808   4.879   1.085   6.721 -0.2925  0.2122 -0.7154
  114OSM    H9S11809   4.922   1.182   6.689 -1.2460  0.5250 -1.0946
  114OSM    H9T11810   4.771   1.097   6.742 -0.0850  1.8743 -0.4733
  114OSM   C10S11811   4.916   0.976   6.624 -0.5176  0.5853  0.1019
  114OSM   H10S11812   4.855   0.886   6.649 -0.8209  1.1082  1.3329
  114OSM   H10T11813   5.022   0.945   6.629 -0.8114 -0.4038  0.5129
  114OSM   C11S11814   4.891   1.025   6.475 -0.4714  0.9532  0.2000
  114OSM   H11S11815   4.789   1.063   6.454 -1.2484 -1.2832 -0.4297
  114OSM   H11T11816   4.896   0.939   6.404 -0.2125  0.2819  1.0132
  114OSM   C12S11817   4.991   1.129   6.423 -0.1639 -0.0557 -0.4126
  114OSM   H12S11818   5.094   1.096   6.451 -0.0952 -2.1137 -2.7110
  114OSM   H12T11819   4.960   1.229   6.461  1.2644  0.4885 -0.5909
  114OSM   C13S11820   4.993   1.149   6.273 -0.0143  0.1860  0.8623
  114OSM   H13S11821   5.044   1.240   6.236 -0.5240 -0.5076 -1.7663
  114OSM   H13T11822   4.887   1.163   6.241 -0.1580  2.1817  2.0364
  114OSM   C14S11823   5.052   1.028   6.198  0.1178 -0.0952 -0.1149
  114OSM   H14S11824   5.046   1.047   6.089 -1.7629 -1.4937 -0.3227
  114OSM   H14T11825   4.985   0.940   6.212 -0.1871 -0.0274 -1.0924
  114OSM   C15S11826   5.200   0.992   6.222 -0.2765 -0.8687  0.2275
  114OSM   H15S11827   5.230   0.917   6.145  1.1951  0.6354 -0.7123
  114OSM   H15T11828   5.221   0.942   6.319  0.8363 -1.1077 -0.1280
  114OSM   C16S11829   5.288   1.122   6.204  0.5556  0.2200  0.4454
  114OSM   H16S11830   5.252   1.190   6.285  0.1512 -0.5126  0.8870
  114OSM   H16T11831   5.263   1.167   6.106 -0.2034  0.3325  0.6806
  114OSM   C17S11832   5.441   1.102   6.209  0.1376  0.0659 -0.1571
  114OSM   H17S11833   5.478   1.043   6.122  0.2898 -0.3310  0.1696
  114OSM   H17T11834   5.452   1.029   6.293  1.3533 -1.4254 -1.5286
  114OSM   C18S11835   5.517   1.230   6.242  0.1534 -0.1584 -0.1872
  114OSM   H18S11836   5.514   1.295   6.152 -1.0870  1.6255  1.0697
  114OSM   H18T11837   5.621   1.201   6.271 -0.1379 -0.4380  0.5910
  114OSM   H18U11838   5.472   1.280   6.330 -1.9109  1.1036 -1.8492
  114OSM    C1F11839   4.811   1.454   7.077  0.6542  0.1471  0.4059
  114OSM     OF11840   4.895   1.525   7.118 -0.2499 -1.1420 -0.3700
  114OSM    C2F11841   4.744   1.488   6.947  0.6178 -0.5866 -0.5940
  114OSM    H2F11842   4.679   1.575   6.974  0.1034 -1.5389  1.4430
  114OSM    H2G11843   4.686   1.403   6.907  1.2330 -1.4523  0.3147
  114OSM    C3F11844   4.844   1.519   6.833 -0.0098 -0.0731 -0.2331
  114OSM    H3F11845   4.912   1.433   6.820 -0.5901 -0.6153  0.2690
  114OSM    H3G11846   4.917   1.603   6.838  1.2981 -1.2506  1.5815
  114OSM    C4F11847   4.769   1.535   6.692 -0.2946  0.1473 -0.7810
  114OSM    H4F11848   4.723   1.636   6.690  0.6307  0.5773 -1.4123
  114OSM    H4G11849   4.694   1.453   6.687  0.0638 -0.1678 -1.0730
  114OSM    C5F11850   4.860   1.517   6.575  0.0169 -0.0922  0.5880
  114OSM    H5F11851   4.917   1.424   6.594 -1.8033 -0.9415  2.1833
  114OSM    H5G11852   4.921   1.610   6.570 -0.6830  0.3371 -0.3317
  114OSM    C6F11853   4.775   1.494   6.452 -0.0944  0.4177  0.1059
  114OSM    H6F11854   4.693   1.569   6.447 -1.2070 -0.8036 -0.6086
  114OSM    H6G11855   4.734   1.391   6.448  0.5150  0.1634  0.3519
  114OSM    C7F11856   4.856   1.502   6.321 -0.9913 -0.3865 -0.2724
  114OSM    H7F11857   4.950   1.442   6.326 -0.4240  0.4014 -1.0730
  114OSM    H7G11858   4.883   1.609   6.319 -0.3881 -0.5455 -1.3685
  114OSM    C8F11859   4.769   1.468   6.200  0.6783 -0.5712  0.4068
  114OSM    H8F11860   4.697   1.553   6.198  1.9306  0.5519  1.2284
  114OSM    H8G11861   4.711   1.379   6.231  0.4172 -0.0033  1.6286
  114OSM    C9F11862   4.844   1.455   6.070 -0.1899 -0.1970  0.4318
  114OSM    H9F11863   4.951   1.430   6.079  0.2555  1.4548  0.1567
  114OSM   C10F11864   4.787   1.454   5.946  0.6848 -0.4347  0.3509
  114OSM   H10F11865   4.851   1.419   5.863  0.4932  0.3537 -0.1430
  114OSM   C11F11866   4.638   1.485   5.923 -1.1840 -0.5325 -0.9885
  114OSM   H11F11867   4.597   1.531   6.016 -0.5445  2.3949 -2.0426
  114OSM   H11G11868   4.578   1.392   5.912  0.5247 -1.4423 -3.2490
  114OSM   C12F11869   4.617   1.567   5.799 -0.2786  0.3977  0.3377
  114OSM   H12F11870   4.627   1.511   5.704 -1.1051  2.1329 -0.8257
  114OSM   H12G11871   4.686   1.655   5.800  1.3727 -0.7948 -1.5583
  114OSM   C13F11872   4.474   1.628   5.801 -0.2718  0.5617 -0.0359
  114OSM   H13F11873   4.465   1.684   5.897 -3.4632  0.2761 -0.0582
  114OSM   H13G11874   4.410   1.538   5.797  1.6817 -0.8845  0.2377
  114OSM   C14F11875   4.449   1.726   5.693 -0.0555 -0.1029  0.2095
  114OSM   H14F11876   4.484   1.690   5.594 -1.1551  3.1018 -1.4944
  114OSM   H14G11877   4.520   1.810   5.704  0.4302 -0.5826  0.7972
  114OSM   C15F11878   4.309   1.794   5.682 -0.5674 -0.4649  0.2915
  114OSM   H15F11879   4.229   1.718   5.674 -1.0939 -0.2768  2.9889
  114OSM   H15G11880   4.310   1.858   5.591  0.6062 -1.8089 -0.6962
  114OSM   C16F11881   4.276   1.860   5.815  0.0137 -0.8579  0.9197
  114OSM   H16F11882   4.361   1.927   5.840 -0.6813  1.0012 -1.4351
  114OSM   H16G11883   4.274   1.784   5.897 -0.5615  0.1747  1.8840
  114OSM   C17F11884   4.148   1.938   5.821  0.1850 -0.5647 -0.7496
  114OSM   H17F11885   4.069   1.864   5.846  0.5483 -1.2718 -1.6366
  114OSM   H17G11886   4.122   1.994   5.729 -1.3399  0.2425  0.1270
  114OSM   C18F11887   4.150   2.038   5.937  0.4538 -0.1319 -0.2866
  114OSM   H18F11888   4.178   1.977   6.025  0.8445 -0.6342 -0.7598
  114OSM   H18G11889   4.056   2.097   5.950  2.2193  2.8695 -0.2079
  114OSM   H18H11890   4.232   2.113   5.937 -0.1981  0.6026 -0.3188
  115OSM      N11891   4.188   5.291   8.253 -0.6804  0.0752 -0.1043
  115OSM    C1511892   4.147   5.165   8.322 -0.0319  0.6073 -0.3327
  115OSM   H15A11893   4.206   5.075   8.315 -1.6316 -0.7436  2.0738
  115OSM   H15B11894   4.045   5.149   8.292  0.1477 -0.2937 -0.5022
  115OSM   H15C11895   4.140   5.179   8.429  2.2000 -2.4121  0.3498
  115OSM    C1411896   4.091   5.406   8.284 -0.4247 -0.4461 -0.2468
  115OSM   H14A11897   4.058   5.391   8.386  2.3829  0.1987  0.8536
  115OSM   H14B11898   4.009   5.409   8.214  1.0274 -0.3861 -2.0287
  115OSM   H14C11899   4.144   5.501   8.282  0.3264 -0.8621 -0.5278
  115OSM    C1311900   4.320   5.336   8.296  0.3295 -0.0325 -0.4000
  115OSM   H13A11901   4.349   5.418   8.232 -1.2430 -0.3967 -1.6452
  115OSM   H13B11902   4.398   5.262   8.311  0.1528 -0.4708 -1.5661
  115OSM   H13C11903   4.310   5.374   8.397  0.6631 -2.8574  0.7787
  115OSM    C1211904   4.198   5.273   8.099 -0.7146 -0.2423 -0.4740
  115OSM   H12A11905   4.276   5.201   8.081 -0.8109 -0.4083 -0.2423
  115OSM   H12B11906   4.226   5.365   8.050  0.8593 -0.8969 -0.8570
  115OSM    C1111907   4.069   5.213   8.027 -0.4897  0.5497 -0.6357
  115OSM   H11A11908   4.086   5.232   7.919  0.0339 -0.5668 -0.7611
  115OSM   H11B11909   3.977   5.268   8.055 -1.7653 -1.2191 -1.1489
  115OSM      P11910   4.163   4.975   7.988 -0.3697  0.0887 -0.0361
  115OSM    O1311911   4.301   5.022   8.039  0.6367 -0.4621 -0.1744
  115OSM    O1411912   4.128   4.838   8.028 -0.2907  0.1472  0.0129
  115OSM    O1111913   4.151   4.991   7.831 -0.7853 -0.0817 -0.3192
  115OSM    O1211914   4.051   5.072   8.046  0.0370  0.0331  0.2414
  115OSM    C1S11915   4.267   4.943   7.758  0.2535 -0.2904 -0.1763
  115OSM    H1S11916   4.292   4.838   7.784 -1.1270 -0.5080  0.3450
  115OSM    H1T11917   4.363   4.995   7.781 -0.3078  1.8640 -2.3832
  115OSM     NF11918   4.333   4.882   7.521  0.4834 -0.1943  0.5370
  115OSM    HNF11919   4.419   4.921   7.488  0.1020  0.8859  0.7759
  115OSM    C2S11920   4.243   4.963   7.600 -0.1724  0.1004  0.2747
  115OSM    H2S11921   4.138   4.932   7.580 -0.1634  0.9915 -1.3890
  115OSM    C3S11922   4.249   5.119   7.570  0.2509 -0.2019  0.3986
  115OSM    H3S11923   4.355   5.152   7.580 -0.6997  3.5851 -0.4168
  115OSM     O311924   4.179   5.206   7.663 -0.5722  0.7967 -0.2432
  115OSM    HO311925   4.150   5.141   7.727  3.3156 -0.7836  0.1845
  115OSM    C4S11926   4.208   5.151   7.433 -0.0538  0.1680  0.2689
  115OSM    H4S11927   4.292   5.137   7.362  0.5288  0.2741  0.9317
  115OSM    C5S11928   4.095   5.194   7.386 -0.3840  0.4865  0.3626
  115OSM    H5S11929   4.018   5.221   7.461  1.0733  1.0042  1.7367
  115OSM    C6S11930   4.066   5.230   7.236  0.2883  0.0876  0.2203
  115OSM    H6S11931   4.108   5.155   7.165  0.9882  1.9482 -1.4420
  115OSM    H6T11932   4.117   5.327   7.215 -1.0994  0.2462 -2.9478
  115OSM    C7S11933   3.913   5.246   7.206 -0.3306  0.0445  0.0074
  115OSM    H7S11934   3.885   5.340   7.258  0.4153 -0.4659  1.3644
  115OSM    H7T11935   3.857   5.157   7.243 -0.1831 -0.0718 -0.0482
  115OSM    C8S11936   3.869   5.280   7.066  0.0013 -0.1578  0.3053
  115OSM    H8S11937   3.759   5.294   7.080 -0.2585 -0.9219 -0.8544
  115OSM    H8T11938   3.883   5.193   6.998 -0.2724  2.3798 -3.2277
  115OSM    C9S11939   3.924   5.406   7.000 -0.7495 -0.3200 -0.5389
  115OSM    H9S11940   4.033   5.396   6.983 -0.8306 -1.9761 -0.2370
  115OSM    H9T11941   3.899   5.491   7.066 -2.3237 -1.8668  0.9479
  115OSM   C10S11942   3.869   5.438   6.861 -0.1020  0.4123 -0.0118
  115OSM   H10S11943   3.887   5.543   6.827  0.0371 -0.3898 -2.6400
  115OSM   H10T11944   3.762   5.413   6.876 -0.2780  1.6044  0.9380
  115OSM   C11S11945   3.914   5.347   6.740 -0.0283 -0.6440 -0.4293
  115OSM   H11S11946   3.829   5.358   6.669 -0.2033 -4.2270 -0.9902
  115OSM   H11T11947   3.915   5.237   6.758 -0.8270 -0.7251 -0.8306
  115OSM   C12S11948   4.040   5.391   6.672  0.0722  0.6044 -0.2901
  115OSM   H12S11949   4.126   5.389   6.742 -1.0296  1.4564  1.1481
  115OSM   H12T11950   4.024   5.492   6.628 -0.9678 -0.4608 -2.4769
  115OSM   C13S11951   4.077   5.295   6.560  0.6181 -0.2389 -0.1864
  115OSM   H13S11952   4.071   5.188   6.591  0.7009  0.0290  0.8064
  115OSM   H13T11953   4.179   5.310   6.521  1.0055 -1.5913  0.2255
  115OSM   C14S11954   3.995   5.318   6.431  0.1315  0.4759  0.0921
  115OSM   H14S11955   4.050   5.399   6.379  1.6214 -0.3681  0.3210
  115OSM   H14T11956   3.889   5.346   6.450  0.9757  2.0256  3.1796
  115OSM   C15S11957   3.999   5.193   6.337 -0.3781  0.5354 -0.1461
  115OSM   H15S11958   3.947   5.108   6.387  0.5128  1.5104  2.6428
  115OSM   H15T11959   4.106   5.163   6.342 -0.8374 -1.1202  0.7261
  115OSM   C16S11960   3.940   5.220   6.198  0.0664  0.5106  0.8243
  115OSM   H16S11961   4.008   5.291   6.146  0.6877 -1.4460 -1.2163
  115OSM   H16T11962   3.839   5.264   6.208  0.8748  2.2810  1.6652
  115OSM   C17S11963   3.940   5.092   6.112 -0.2204 -0.7307 -0.7657
  115OSM   H17S11964   3.859   5.028   6.151  0.8797 -2.2978 -0.9655
  115OSM   H17T11965   4.033   5.033   6.126  1.1165  1.1821 -1.0632
  115OSM   C18S11966   3.918   5.125   5.965 -0.2204 -0.0347 -0.2896
  115OSM   H18S11967   4.005   5.169   5.911  0.2545 -1.6210 -0.8748
  115OSM   H18T11968   3.819   5.174   5.957 -0.5682 -0.8991 -1.5920
  115OSM   H18U11969   3.898   5.045   5.891 -2.1543  1.2452 -1.2424
  115OSM    C1F11970   4.313   4.753   7.517  0.6798 -0.0353  0.9191
  115OSM     OF11971   4.216   4.699   7.577 -0.1803  0.0456 -0.2554
  115OSM    C2F11972   4.428   4.675   7.450 -0.2467 -0.2638  0.3418
  115OSM    H2F11973   4.434   4.575   7.498 -0.6849 -1.1130 -1.3151
  115OSM    H2G11974   4.525   4.728   7.460  0.8867 -2.2630  0.4979
  115OSM    C3F11975   4.399   4.639   7.308  0.1314 -0.5203 -0.2957
  115OSM    H3F11976   4.354   4.717   7.242  0.4075 -2.5071 -3.0035
  115OSM    H3G11977   4.317   4.564   7.304 -0.3548  0.0368 -3.2060
  115OSM    C4F11978   4.523   4.569   7.241  0.0134 -0.0256  0.6921
  115OSM    H4F11979   4.563   4.489   7.307  2.7892  0.0818 -0.7401
  115OSM    H4G11980   4.597   4.649   7.221  0.6596 -0.6152  0.7157
  115OSM    C5F11981   4.487   4.509   7.100  0.5447 -0.3662  0.3218
  115OSM    H5F11982   4.426   4.416   7.112  1.8852 -1.8171 -2.9411
  115OSM    H5G11983   4.579   4.465   7.055 -0.1672 -1.5909  0.0005
  115OSM    C6F11984   4.419   4.601   7.004 -0.8440 -0.6006  0.3780
  115OSM    H6F11985   4.460   4.704   7.010  1.0529 -1.3902  1.9169
  115OSM    H6G11986   4.317   4.614   7.046 -1.0583  0.2682 -0.3772
  115OSM    C7F11987   4.411   4.548   6.860 -0.4628  0.1978 -0.3437
  115OSM    H7F11988   4.309   4.543   6.817  0.2827 -0.8340 -2.0714
  115OSM    H7G11989   4.442   4.442   6.876 -1.9976  0.0202  1.8385
  115OSM    C8F11990   4.521   4.603   6.768  0.2496 -0.2405  0.0160
  115OSM    H8F11991   4.523   4.535   6.681 -0.8857  1.5235 -1.4674
  115OSM    H8G11992   4.618   4.609   6.823 -1.5553 -0.5179  3.4885
  115OSM    C9F11993   4.486   4.736   6.720  0.8697 -0.2096  0.1234
  115OSM    H9F11994   4.446   4.811   6.790  0.3874 -0.8233  0.5179
  115OSM   C10F11995   4.510   4.778   6.596 -0.5729  0.2583  0.1159
  115OSM   H10F11996   4.494   4.882   6.566 -0.0184  0.0795 -0.8245
  115OSM   C11F11997   4.575   4.683   6.493 -0.5020  0.6087 -0.2679
  115OSM   H11F11998   4.511   4.592   6.483  2.5995 -1.7203 -0.7529
  115OSM   H11G11999   4.670   4.643   6.534  0.5457  2.3764 -0.8716
  115OSM   C12F12000   4.615   4.745   6.360 -0.1581 -0.5237  0.4860
  115OSM   H12F12001   4.681   4.683   6.296 -0.2795 -0.5549  0.3910
  115OSM   H12G12002   4.678   4.835   6.372 -0.7794  0.4479 -2.6269
  115OSM   C13F12003   4.485   4.775   6.275 -0.5964  0.0152  0.0481
  115OSM   H13F12004   4.430   4.859   6.322  0.8222  0.4990  0.9432
  115OSM   H13G12005   4.432   4.678   6.273  1.2026 -1.0050 -1.0131
  115OSM   C14F12006   4.512   4.793   6.121  0.7652  0.3721 -0.0037
  115OSM   H14F12007   4.601   4.859   6.116 -0.3247  1.9913  0.9889
  115OSM   H14G12008   4.420   4.834   6.075  2.0484  2.3523 -0.9701
  115OSM   C15F12009   4.555   4.671   6.035  0.2365  0.3790 -0.1542
  115OSM   H15F12010   4.466   4.608   6.016  0.5935  0.1367 -1.0612
  115OSM   H15G12011   4.632   4.616   6.094 -1.6875 -0.4012  1.7828
  115OSM   C16F12012   4.604   4.697   5.893  0.2723 -0.0033  1.0193
  115OSM   H16F12013   4.703   4.747   5.899 -0.0099  0.4886  1.6169
  115OSM   H16G12014   4.529   4.759   5.839  0.5149 -0.5950 -0.0267
  115OSM   C17F12015   4.627   4.565   5.818  0.8345  0.4772 -0.4703
  115OSM   H17F12016   4.524   4.523   5.812  1.1754 -0.2434 -1.3985
  115OSM   H17G12017   4.695   4.507   5.884 -0.1016 -2.3378 -1.8065
  115OSM   C18F12018   4.684   4.592   5.680  0.9259 -0.4909 -0.3550
  115OSM   H18F12019   4.767   4.666   5.679  0.5279 -0.0188 -1.8511
  115OSM   H18G12020   4.608   4.632   5.609 -0.1824 -2.6840 -0.4824
  115OSM   H18H12021   4.713   4.496   5.632  0.6836 -0.8616  0.2290
  116OSM      N12022   6.019   0.139   7.982 -0.3548  0.4763 -0.3176
  116OSM    C1512023   5.984   0.268   8.061  0.6020 -0.7080 -0.0031
  116OSM   H15A12024   6.000   0.354   7.997  0.7169 -0.0966  0.8410
  116OSM   H15B12025   6.035   0.281   8.155 -0.5187  0.9999  0.4081
  116OSM   H15C12026   5.880   0.261   8.088  0.5525 -0.2416 -0.0612
  116OSM    C1412027   6.156   0.157   7.913 -0.0783  0.6306 -0.1096
  116OSM   H14A12028   6.148   0.236   7.841 -0.3160  1.0963  0.4160
  116OSM   H14B12029   6.186   0.069   7.858 -1.3369 -0.1876  0.4455
  116OSM   H14C12030   6.232   0.181   7.985 -0.6121  1.4015  0.2060
  116OSM    C1312031   6.029   0.010   8.064  0.9129 -0.0094  0.6490
  116OSM   H13A12032   6.064  -0.072   8.002 -1.8206  0.9206 -2.3699
  116OSM   H13B12033   5.936  -0.010   8.115  1.0693 -0.6480  0.6914
  116OSM   H13C12034   6.099   0.019   8.146  1.3461 -1.8363  0.5298
  116OSM    C1212035   5.911   0.119   7.876 -0.6643 -0.0966 -0.5595
  116OSM   H12A12036   5.938   0.040   7.807 -0.5041 -1.2729  0.7994
  116OSM   H12B12037   5.911   0.207   7.814 -0.0355 -0.7869 -1.5622
  116OSM    C1112038   5.764   0.092   7.924  0.3742 -0.0443 -0.3147
  116OSM   H11A12039   5.690   0.083   7.841 -0.4232 -1.3240  0.4946
  116OSM   H11B12040   5.724   0.173   7.989 -1.3820 -0.6346 -0.6153
  116OSM      P12041   5.765  -0.163   7.912  0.2929  0.1409 -0.2166
  116OSM    O1312042   5.877  -0.241   7.956  0.2744 -0.2832  0.2536
  116OSM    O1412043   5.632  -0.223   7.923  0.3832 -0.8970  0.3653
  116OSM    O1112044   5.786  -0.135   7.763  0.6321  0.2406 -0.0666
  116OSM    O1212045   5.757  -0.030   8.000  0.0114  0.1250  0.2553
  116OSM    C1S12046   5.711  -0.199   7.656  0.2586  0.0162 -0.2527
  116OSM    H1S12047   5.601  -0.189   7.664  0.3549  1.4596 -0.4170
  116OSM    H1T12048   5.737  -0.305   7.636  2.2066  0.2236  0.8780
  116OSM     NF12049   5.679  -0.204   7.412  0.2721 -0.0175  0.3871
  116OSM    HNF12050   5.746  -0.236   7.345 -0.9845  0.6661 -1.2703
  116OSM    C2S12051   5.744  -0.135   7.519 -0.1162 -0.4878  0.1658
  116OSM    H2S12052   5.700  -0.033   7.516  1.1615  0.0658 -0.3020
  116OSM    C3S12053   5.894  -0.114   7.487 -0.1992  0.4798 -0.4188
  116OSM    H3S12054   5.926  -0.220   7.480 -0.7111  0.1029  2.1925
  116OSM     O312055   5.966  -0.062   7.593  0.3129  0.2684 -0.1591
  116OSM    HO312056   5.898  -0.073   7.659  0.8364  0.0125  0.3456
  116OSM    C4S12057   5.913  -0.047   7.356 -0.3060 -0.6460  0.1671
  116OSM    H4S12058   5.921  -0.120   7.274 -0.1266 -1.5117  0.9415
  116OSM    C5S12059   5.916   0.089   7.344  0.3402  0.5774  0.6639
  116OSM    H5S12060   5.901   0.154   7.431  0.9108  0.7994  0.5969
  116OSM    C6S12061   5.931   0.166   7.213 -0.3785 -0.0626 -0.1047
  116OSM    H6S12062   6.036   0.202   7.210 -0.9155  1.5195 -0.8406
  116OSM    H6T12063   5.869   0.257   7.222  0.7200  0.6983 -0.0458
  116OSM    C7S12064   5.878   0.089   7.092  0.2601  0.6748 -0.6153
  116OSM    H7S12065   5.768   0.076   7.102  0.6219 -1.2945  1.7230
  116OSM    H7T12066   5.914  -0.015   7.082 -0.9841  0.0857  0.7773
  116OSM    C8S12067   5.909   0.156   6.953 -0.4086  0.0911  0.9676
  116OSM    H8S12068   6.018   0.159   6.934 -0.7351  0.2958 -1.2164
  116OSM    H8T12069   5.878   0.260   6.974 -0.0339  0.0058  1.9630
  116OSM    C9S12070   5.811   0.106   6.846 -0.0620 -0.3182 -0.0621
  116OSM    H9S12071   5.711   0.118   6.893 -0.5176 -1.9938 -0.5059
  116OSM    H9T12072   5.819  -0.005   6.835  0.3982 -0.2496 -0.4292
  116OSM   C10S12073   5.822   0.177   6.707  0.2131 -0.4854  0.5601
  116OSM   H10S12074   5.837   0.286   6.722  1.3199 -0.7435  1.4879
  116OSM   H10T12075   5.727   0.158   6.653  0.8282 -0.3978 -0.5928
  116OSM   C11S12076   5.935   0.119   6.613 -0.3951  0.0148 -0.2779
  116OSM   H11S12077   5.905   0.026   6.560  2.4063 -2.3293  1.8673
  116OSM   H11T12078   6.021   0.084   6.674  0.9425  0.8890 -1.5604
  116OSM   C12S12079   5.983   0.213   6.500  0.6118  0.5396 -0.4964
  116OSM   H12S12080   6.091   0.193   6.484  0.1498 -1.0261 -2.0434
  116OSM   H12T12081   5.970   0.312   6.548  0.7922 -0.0348  0.7687
  116OSM   C13S12082   5.899   0.195   6.364  0.1125 -0.3558 -0.8222
  116OSM   H13S12083   5.790   0.204   6.385  0.7195  2.0275  1.9792
  116OSM   H13T12084   5.926   0.093   6.329  0.3530 -0.6513  0.1951
  116OSM   C14S12085   5.939   0.304   6.259 -0.3355  0.5287 -0.0197
  116OSM   H14S12086   6.042   0.281   6.223 -0.0331  0.6086  0.7926
  116OSM   H14T12087   5.937   0.403   6.307 -1.1260  0.7767 -0.5396
  116OSM   C15S12088   5.848   0.320   6.142 -0.0211  0.0196  0.2310
  116OSM   H15S12089   5.742   0.329   6.174 -0.4605  3.4642 -1.6725
  116OSM   H15T12090   5.846   0.229   6.078 -1.3729  0.1151  0.1040
  116OSM   C16S12091   5.883   0.445   6.059 -0.8132  0.0621 -0.0323
  116OSM   H16S12092   5.993   0.441   6.045 -0.6066  2.4300  0.5954
  116OSM   H16T12093   5.855   0.532   6.122  0.0356  0.2108  0.1472
  116OSM   C17S12094   5.832   0.447   5.919  0.2089 -0.8791 -0.0250
  116OSM   H17S12095   5.729   0.486   5.932  0.6508  0.2064  0.3204
  116OSM   H17T12096   5.827   0.347   5.869  3.1187 -1.5669  0.8713
  116OSM   C18S12097   5.909   0.548   5.830  0.9693  0.5195  0.2377
  116OSM   H18S12098   5.890   0.651   5.864 -0.1257  0.0785  1.0264
  116OSM   H18T12099   5.869   0.540   5.726  1.1647  2.1733  0.0137
  116OSM   H18U12100   6.018   0.525   5.834  0.6676 -1.4825 -1.1613
  116OSM    C1F12101   5.550  -0.222   7.395  0.1935  0.3243  0.3401
  116OSM     OF12102   5.461  -0.184   7.472  0.3597  0.0880  0.4199
  116OSM    C2F12103   5.512  -0.299   7.269 -0.1791 -0.3174 -0.8756
  116OSM    H2F12104   5.414  -0.262   7.230  0.0152  0.4932 -0.6153
  116OSM    H2G12105   5.495  -0.406   7.293 -0.1377 -0.6913 -2.3863
  116OSM    C3F12106   5.611  -0.286   7.153 -0.7664  0.7332 -0.1990
  116OSM    H3F12107   5.712  -0.333   7.147 -1.2632 -0.3478 -0.3151
  116OSM    H3G12108   5.642  -0.179   7.148 -0.1573  0.5229 -1.5928
  116OSM    C4F12109   5.541  -0.302   7.009 -0.1726  0.5216 -0.3918
  116OSM    H4F12110   5.450  -0.238   7.006 -1.5144 -1.3411 -0.9492
  116OSM    H4G12111   5.512  -0.409   7.003 -1.7983  0.8599  0.8071
  116OSM    C5F12112   5.641  -0.260   6.892 -0.1750  0.6065 -0.8778
  116OSM    H5F12113   5.736  -0.318   6.893 -0.6625 -0.2062  0.1888
  116OSM    H5G12114   5.660  -0.153   6.914 -0.3270  0.9129 -2.1442
  116OSM    C6F12115   5.571  -0.274   6.754 -0.6113  0.4177  0.6698
  116OSM    H6F12116   5.461  -0.267   6.769 -0.7080  0.6799 -0.1134
  116OSM    H6G12117   5.587  -0.379   6.721 -2.7075 -0.1941  1.4074
  116OSM    C7F12118   5.621  -0.166   6.654  0.2408 -0.3666 -0.8389
  116OSM    H7F12119   5.731  -0.158   6.667  0.4947 -1.6168 -2.0395
  116OSM    H7G12120   5.577  -0.067   6.679  1.7608  0.8276 -2.6097
  116OSM    C8F12121   5.587  -0.198   6.509  0.8022 -0.3940  0.4555
  116OSM    H8F12122   5.478  -0.202   6.489  1.1997  0.5116 -2.2803
  116OSM    H8G12123   5.624  -0.302   6.492 -2.1517 -1.6721  1.1864
  116OSM    C9F12124   5.643  -0.092   6.415  0.5774  0.4699 -0.1418
  116OSM    H9F12125   5.705  -0.016   6.465  1.3073 -0.4144  0.3274
  116OSM   C10F12126   5.638  -0.099   6.278  0.1011 -0.1964 -0.5946
  116OSM   H10F12127   5.687  -0.022   6.217 -2.2995  1.5717 -0.4759
  116OSM   C11F12128   5.576  -0.212   6.201  0.6578 -0.2645 -0.9919
  116OSM   H11F12129   5.489  -0.253   6.256  1.0567 -1.5557 -1.2821
  116OSM   H11G12130   5.655  -0.282   6.167  2.5718  0.9380  0.7212
  116OSM   C12F12131   5.506  -0.160   6.075 -0.3127 -0.9342 -0.2664
  116OSM   H12F12132   5.581  -0.114   6.008 -0.1725  0.2260  0.6676
  116OSM   H12G12133   5.430  -0.085   6.103  0.6134 -0.0169 -0.1622
  116OSM   C13F12134   5.436  -0.279   6.008 -0.5052 -0.3587 -0.1154
  116OSM   H13F12135   5.377  -0.340   6.079  1.2272 -0.4152  1.3562
  116OSM   H13G12136   5.514  -0.348   5.970  0.5485  0.4165  0.5852
  116OSM   C14F12137   5.339  -0.238   5.889 -0.7806 -0.2173 -0.5242
  116OSM   H14F12138   5.376  -0.156   5.824  0.8689  1.0844  1.9358
  116OSM   H14G12139   5.260  -0.188   5.949  0.3171  2.1688 -0.9623
  116OSM   C15F12140   5.282  -0.352   5.810 -0.3551 -0.2911  0.9158
  116OSM   H15F12141   5.188  -0.323   5.759 -0.2073  1.2144  1.4495
  116OSM   H15G12142   5.264  -0.430   5.888 -0.4191 -1.6274 -0.3982
  116OSM   C16F12143   5.374  -0.401   5.705 -0.1147 -0.0957 -0.1215
  116OSM   H16F12144   5.472  -0.428   5.749 -0.4158 -2.6206 -0.8381
  116OSM   H16G12145   5.385  -0.325   5.625 -1.5475 -0.1174 -0.3544
  116OSM   C17F12146   5.313  -0.527   5.650 -0.0312  0.5094  0.4344
  116OSM   H17F12147   5.207  -0.504   5.627 -0.2700  1.3746  2.2621
  116OSM   H17G12148   5.306  -0.606   5.726  1.5523 -0.6891 -0.5926
  116OSM   C18F12149   5.394  -0.597   5.540  0.4809 -0.1826  0.7066
  116OSM   H18F12150   5.397  -0.534   5.448 -0.0020 -0.0164  0.8034
  116OSM   H18G12151   5.361  -0.699   5.511 -1.3383  0.8641 -1.1787
  116OSM   H18H12152   5.500  -0.606   5.571  0.8956  0.4372 -0.4416
  117OSM      N12153   5.245   3.409   7.677  0.4391  0.5268 -0.3421
  117OSM    C1512154   5.154   3.330   7.592  0.3526  0.1314  0.2259
  117OSM   H15A12155   5.069   3.390   7.563  1.2879  0.2470 -2.6380
  117OSM   H15B12156   5.122   3.239   7.640 -0.0037 -1.8540 -3.4016
  117OSM   H15C12157   5.205   3.292   7.504  1.5310 -0.9876  1.3608
  117OSM    C1412158   5.181   3.445   7.806  0.6534 -0.2747 -0.2789
  117OSM   H14A12159   5.113   3.368   7.839  1.0858 -0.9794 -1.0044
  117OSM   H14B12160   5.114   3.530   7.799  0.5354 -0.3863 -0.5227
  117OSM   H14C12161   5.249   3.477   7.883 -0.1601  3.8010 -1.0258
  117OSM    C1312162   5.363   3.316   7.716  1.1908  0.2881  0.0454
  117OSM   H13A12163   5.406   3.292   7.620  1.1426 -0.0490  0.1049
  117OSM   H13B12164   5.321   3.230   7.767  1.1732 -0.2908 -0.9208
  117OSM   H13C12165   5.441   3.365   7.771  0.9708 -0.4115  1.0037
  117OSM    C1212166   5.300   3.537   7.608  0.1189 -0.3922 -0.2612
  117OSM   H12A12167   5.343   3.611   7.675  0.1003 -0.0991 -0.5701
  117OSM   H12B12168   5.213   3.598   7.587 -0.2253 -0.1783  1.5872
  117OSM    C1112169   5.381   3.521   7.485 -0.1105 -0.3668  0.1774
  117OSM   H11A12170   5.409   3.623   7.449  0.3029 -0.5273  0.0423
  117OSM   H11B12171   5.314   3.498   7.399 -1.1139  0.5325  0.6972
  117OSM      P12172   5.624   3.480   7.542 -0.1304 -0.0402  0.2783
  117OSM    O1312173   5.608   3.590   7.636 -0.3684  0.0695 -0.1610
  117OSM    O1412174   5.702   3.366   7.592 -0.4046  0.4798 -0.0214
  117OSM    O1112175   5.706   3.532   7.415  0.1908 -0.4176  0.4310
  117OSM    O1212176   5.481   3.425   7.486  0.3178  0.1118  0.1361
  117OSM    C1S12177   5.703   3.446   7.300 -0.3334 -1.2438  0.1432
  117OSM    H1S12178   5.597   3.419   7.281 -0.7690  0.1951  0.3661
  117OSM    H1T12179   5.764   3.354   7.310  1.0588 -0.3092  0.4900
  117OSM     NF12180   5.772   3.443   7.059  0.1728 -0.5331 -0.2351
  117OSM    HNF12181   5.863   3.405   7.047  0.8198  1.7688 -4.6813
  117OSM    C2S12182   5.764   3.527   7.175  0.2845  0.1272  0.3372
  117OSM    H2S12183   5.689   3.603   7.148  0.2535 -0.1639 -0.4244
  117OSM    C3S12184   5.895   3.605   7.211  0.1009  0.0640  0.5805
  117OSM    H3S12185   5.967   3.540   7.266  0.0276 -0.6730 -0.1842
  117OSM     O312186   5.867   3.721   7.287 -0.3114  0.2948  0.1243
  117OSM    HO312187   5.792   3.712   7.346 -0.8460 -0.9733 -0.7058
  117OSM    C4S12188   5.954   3.660   7.088  0.0678  0.2383 -0.6528
  117OSM    H4S12189   5.886   3.736   7.047 -0.2048 -0.4639 -1.5201
  117OSM    C5S12190   6.071   3.627   7.027 -0.7901 -0.3637 -0.3430
  117OSM    H5S12191   6.127   3.547   7.078  0.1784  1.1318  1.0463
  117OSM    C6S12192   6.126   3.668   6.887  0.2439  0.0143 -0.5484
  117OSM    H6S12193   6.236   3.680   6.894  0.3564 -0.4779 -1.3959
  117OSM    H6T12194   6.072   3.763   6.868 -0.3959 -0.1143  0.5547
  117OSM    C7S12195   6.071   3.578   6.778  0.2765 -0.1773 -0.2318
  117OSM    H7S12196   5.960   3.576   6.778  0.2769 -0.6286  0.8966
  117OSM    H7T12197   6.111   3.476   6.793  0.0073 -0.3103 -0.4154
  117OSM    C8S12198   6.120   3.635   6.639 -0.4080  0.0702  0.0307
  117OSM    H8S12199   6.228   3.653   6.654 -0.2962 -0.1417 -0.5155
  117OSM    H8T12200   6.076   3.735   6.617 -0.5835 -0.1090 -0.4485
  117OSM    C9S12201   6.106   3.539   6.529  0.1444  0.2591  0.0019
  117OSM    H9S12202   5.998   3.525   6.507  0.0506  0.6498  0.2073
  117OSM    H9T12203   6.169   3.453   6.560  0.1794  0.3632  0.2169
  117OSM   C10S12204   6.157   3.605   6.397  0.2723  0.3074  0.1889
  117OSM   H10S12205   6.262   3.640   6.410 -0.3739  1.6362  2.6081
  117OSM   H10T12206   6.095   3.696   6.384  2.5458  1.8678 -0.3111
  117OSM   C11S12207   6.131   3.528   6.267 -0.2376  0.6140 -0.1124
  117OSM   H11S12208   6.024   3.497   6.266  0.1360 -0.7872 -1.0832
  117OSM   H11T12209   6.189   3.433   6.264 -0.1979  0.6489 -2.1288
  117OSM   C12S12210   6.177   3.615   6.151 -0.1911  0.0117 -0.1691
  117OSM   H12S12211   6.287   3.626   6.154 -0.2484  0.3699  1.2024
  117OSM   H12T12212   6.127   3.714   6.163 -1.8405 -0.7217 -0.7655
  117OSM   C13S12213   6.132   3.569   6.012  0.3574  0.2615 -0.1634
  117OSM   H13S12214   6.149   3.648   5.936 -0.4690  1.3449  0.7419
  117OSM   H13T12215   6.024   3.546   6.013 -0.0626  2.0810  1.1416
  117OSM   C14S12216   6.204   3.447   5.960 -0.6919 -0.3114 -0.0284
  117OSM   H14S12217   6.203   3.357   6.025 -1.8131 -0.2419  0.0685
  117OSM   H14T12218   6.309   3.484   5.962 -0.6115 -0.5416  0.1086
  117OSM   C15S12219   6.175   3.392   5.819  0.5502 -0.9615 -0.4171
  117OSM   H15S12220   6.197   3.480   5.753 -2.6223  0.6224  0.4247
  117OSM   H15T12221   6.068   3.364   5.812  0.2896  0.1041 -0.9725
  117OSM   C16S12222   6.275   3.288   5.778 -0.2798  0.3741 -0.5559
  117OSM   H16S12223   6.279   3.218   5.865 -0.0271  1.2895  0.1814
  117OSM   H16T12224   6.371   3.344   5.776 -0.9683  1.9324  2.7401
  117OSM   C17S12225   6.257   3.238   5.640 -0.0147 -0.1774 -0.2291
  117OSM   H17S12226   6.287   3.310   5.561 -0.2135  0.1582  0.0036
  117OSM   H17T12227   6.150   3.209   5.630 -0.4362  1.0630  0.4720
  117OSM   C18S12228   6.338   3.113   5.615 -0.4229  0.1284 -0.2859
  117OSM   H18S12229   6.448   3.129   5.617 -0.1565 -1.5458 -0.2466
  117OSM   H18T12230   6.304   3.062   5.523  1.1471 -1.6537  0.0754
  117OSM   H18U12231   6.317   3.046   5.701 -1.3301 -1.0427 -1.3904
  117OSM    C1F12232   5.660   3.387   7.005  0.5497  0.3124  0.0697
  117OSM     OF12233   5.552   3.405   7.056  0.6839  0.3306  0.9664
  117OSM    C2F12234   5.676   3.304   6.888 -0.0515 -0.6892 -0.7072
  117OSM    H2F12235   5.698   3.199   6.919  1.9632  0.1401  0.9273
  117OSM    H2G12236   5.765   3.350   6.838  0.3645  0.4917  1.0455
  117OSM    C3F12237   5.568   3.314   6.792 -0.3134  0.2015 -0.0630
  117OSM    H3F12238   5.533   3.419   6.792 -1.7487 -0.1924  2.2070
  117OSM    H3G12239   5.477   3.257   6.821  0.5279 -1.1177  0.0770
  117OSM    C4F12240   5.591   3.282   6.644 -0.0139 -0.4041  0.1207
  117OSM    H4F12241   5.491   3.269   6.597 -0.4496 -1.3714  1.2629
  117OSM    H4G12242   5.637   3.181   6.647  0.3259 -0.3136 -1.4465
  117OSM    C5F12243   5.698   3.373   6.575  0.3739  0.1771  0.0734
  117OSM    H5F12244   5.783   3.305   6.597  0.9595 -0.0915 -2.6280
  117OSM    H5G12245   5.709   3.467   6.634 -0.4125  0.8861 -0.8748
  117OSM    C6F12246   5.677   3.387   6.428  0.2012 -0.1780  0.5100
  117OSM    H6F12247   5.760   3.450   6.391  1.5385 -2.0825  0.0794
  117OSM    H6G12248   5.581   3.437   6.404 -0.4760 -1.4130  0.5359
  117OSM    C7F12249   5.674   3.253   6.356 -0.2154  0.0698 -0.1547
  117OSM    H7F12250   5.572   3.213   6.376 -0.9689  2.6360  1.6426
  117OSM    H7G12251   5.755   3.196   6.406  2.2663  1.8147 -1.9571
  117OSM    C8F12252   5.706   3.260   6.201 -0.1418  0.1086 -0.5670
  117OSM    H8F12253   5.694   3.159   6.156  0.9400 -0.4189  0.2764
  117OSM    H8G12254   5.814   3.278   6.182 -0.6564  0.2722 -4.1822
  117OSM    C9F12255   5.623   3.371   6.132 -0.2044 -0.0281 -0.2618
  117OSM    H9F12256   5.519   3.379   6.169 -0.7164 -1.8315 -1.2080
  117OSM   C10F12257   5.648   3.437   6.018 -0.6726  0.0726 -0.2879
  117OSM   H10F12258   5.585   3.520   5.982  1.2654  0.7588 -2.2888
  117OSM   C11F12259   5.775   3.431   5.942  0.2437 -0.4222  0.6559
  117OSM   H11F12260   5.841   3.350   5.981 -0.7741 -0.8351  1.5477
  117OSM   H11G12261   5.825   3.529   5.956 -1.4752  0.8430 -1.3896
  117OSM   C12F12262   5.746   3.400   5.788 -0.4006  0.0669  0.0446
  117OSM   H12F12263   5.847   3.389   5.743 -1.0090 -1.1527 -1.0997
  117OSM   H12G12264   5.695   3.488   5.743  0.1792 -0.4128 -1.5989
  117OSM   C13F12265   5.676   3.264   5.763  1.0163  0.2695  0.5745
  117OSM   H13F12266   5.566   3.258   5.773  1.0074  0.1831  0.4154
  117OSM   H13G12267   5.719   3.182   5.824  0.8625  1.5745  2.5279
  117OSM   C14F12268   5.689   3.221   5.615 -0.1999  0.0147 -0.3866
  117OSM   H14F12269   5.792   3.190   5.588  0.3388  1.1713  0.3057
  117OSM   H14G12270   5.673   3.319   5.565 -3.0580  0.4859  1.2532
  117OSM   C15F12271   5.584   3.118   5.552 -0.1752 -0.4191 -0.2173
  117OSM   H15F12272   5.494   3.143   5.614 -0.6663  0.1859 -1.1565
  117OSM   H15G12273   5.615   3.016   5.582 -0.1113 -0.0582  1.0358
  117OSM   C16F12274   5.559   3.133   5.406 -0.3170  0.2025 -0.0196
  117OSM   H16F12275   5.525   3.035   5.366 -1.3014  0.9883 -1.1849
  117OSM   H16G12276   5.655   3.155   5.354  0.2561 -0.4952  0.7276
  117OSM   C17F12277   5.447   3.238   5.375 -0.5402 -0.3597  0.2439
  117OSM   H17F12278   5.457   3.273   5.270 -0.6332  0.8307  0.6199
  117OSM   H17G12279   5.467   3.338   5.420  0.2832  0.1281 -1.1357
  117OSM   C18F12280   5.302   3.192   5.395 -0.0399  0.5886  0.4286
  117OSM   H18F12281   5.270   3.138   5.304  1.8736 -0.0140  0.0523
  117OSM   H18G12282   5.235   3.280   5.398 -2.6885 -1.2352 -1.0618
  117OSM   H18H12283   5.282   3.116   5.474  0.3186 -0.1368 -0.1596
  118OSM      N12284   4.669   3.474   7.783 -0.5272  0.3711 -0.6433
  118OSM    C1512285   4.805   3.474   7.849  0.0171 -0.5429 -0.9170
  118OSM   H15A12286   4.851   3.376   7.847 -1.1464 -1.2019  1.3703
  118OSM   H15B12287   4.786   3.495   7.953 -0.2090  1.4546 -1.3210
  118OSM   H15C12288   4.868   3.553   7.812  1.4572 -0.4629  1.4684
  118OSM    C1412289   4.677   3.403   7.648  0.2568  0.4437  0.0196
  118OSM   H14A12290   4.739   3.458   7.579  1.8161 -1.2210 -0.0113
  118OSM   H14B12291   4.579   3.390   7.604 -1.4232 -1.5340  3.8285
  118OSM   H14C12292   4.712   3.306   7.682  0.3696  0.9072  1.2938
  118OSM    C1312293   4.572   3.389   7.870  0.8241  0.1167  0.8927
  118OSM   H13A12294   4.522   3.465   7.928 -0.6199  0.9759 -1.3540
  118OSM   H13B12295   4.617   3.310   7.928  0.0876 -0.8769  0.1577
  118OSM   H13C12296   4.494   3.342   7.812  1.0696 -2.2611  2.3325
  118OSM    C1212297   4.625   3.617   7.768  0.3928  0.0610  0.2930
  118OSM   H12A12298   4.543   3.604   7.699  1.5070 -2.9459 -0.6566
  118OSM   H12B12299   4.698   3.677   7.715 -0.4583  1.5510  0.7485
  118OSM    C1112300   4.578   3.694   7.887 -0.2941  0.1643  0.0068
  118OSM   H11A12301   4.570   3.802   7.862 -0.6714  0.6090  1.8810
  118OSM   H11B12302   4.661   3.688   7.962 -0.7752 -1.4922  0.4373
  118OSM      P12303   4.321   3.673   7.888  0.1199 -0.2407 -0.4268
  118OSM    O1312304   4.227   3.584   7.960  0.7105 -0.1102  0.0342
  118OSM    O1412305   4.288   3.817   7.909  0.3140 -0.3910 -0.2044
  118OSM    O1112306   4.323   3.650   7.729 -0.3045 -0.0151 -0.4143
  118OSM    O1212307   4.462   3.641   7.943 -0.3066  0.4738 -0.1575
  118OSM    C1S12308   4.192   3.638   7.667 -0.2797  0.0097 -0.1456
  118OSM    H1S12309   4.119   3.709   7.711  1.2728  0.3368  2.0690
  118OSM    H1T12310   4.154   3.534   7.678 -1.8122  0.3667 -1.7020
  118OSM     NF12311   4.081   3.680   7.452 -0.2634  0.1161  0.4332
  118OSM    HNF12312   4.045   3.598   7.407  0.4274  0.1766 -0.2551
  118OSM    C2S12313   4.207   3.664   7.512 -0.1440 -0.2559 -0.2297
  118OSM    H2S12314   4.260   3.760   7.495  1.6163 -1.3400 -1.1774
  118OSM    C3S12315   4.291   3.558   7.437  0.1073  0.3975  0.1666
  118OSM    H3S12316   4.231   3.465   7.424  1.4951 -0.7798  1.7177
  118OSM     O312317   4.406   3.521   7.504 -0.2948 -0.1089  0.1920
  118OSM    HO312318   4.383   3.548   7.593 -4.7332 -0.3026 -0.6450
  118OSM    C4S12319   4.325   3.601   7.298  0.7689  0.1462 -0.3297
  118OSM    H4S12320   4.243   3.570   7.231 -0.4299 -1.6744  1.8725
  118OSM    C5S12321   4.428   3.663   7.246  0.0160  1.0095 -0.5033
  118OSM    H5S12322   4.519   3.668   7.308 -0.6914 -0.8179  0.7703
  118OSM    C6S12323   4.450   3.686   7.099 -0.3852 -0.4546 -0.2071
  118OSM    H6S12324   4.542   3.747   7.086 -0.6471  0.1728  0.7379
  118OSM    H6T12325   4.373   3.750   7.052 -0.5097 -1.4301 -1.3960
  118OSM    C7S12326   4.468   3.558   7.019  0.3069  0.0374 -0.5168
  118OSM    H7S12327   4.389   3.481   7.034  1.0072 -0.7555 -0.8352
  118OSM    H7T12328   4.558   3.502   7.051  0.4102  0.0376 -0.7969
  118OSM    C8S12329   4.468   3.572   6.863  0.3037 -0.5128  0.1534
  118OSM    H8S12330   4.365   3.589   6.826 -0.6864 -3.5158  1.2020
  118OSM    H8T12331   4.499   3.477   6.815 -1.2196  0.2290 -2.5010
  118OSM    C9S12332   4.555   3.682   6.806 -0.2371 -0.5822  0.5423
  118OSM    H9S12333   4.660   3.670   6.841  0.4325  0.5608 -0.9528
  118OSM    H9T12334   4.519   3.776   6.852 -0.5849 -0.5564  0.2195
  118OSM   C10S12335   4.539   3.689   6.653 -0.2678  0.3071  0.2239
  118OSM   H10S12336   4.431   3.710   6.637  0.1914  1.3201 -1.9406
  118OSM   H10T12337   4.561   3.593   6.601 -0.3305  0.1519  0.4842
  118OSM   C11S12338   4.629   3.803   6.597  0.0219  0.3582 -0.6316
  118OSM   H11S12339   4.737   3.791   6.621 -0.1057  0.6714  0.1186
  118OSM   H11T12340   4.605   3.902   6.641 -0.3562 -0.2783  0.6697
  118OSM   C12S12341   4.610   3.809   6.443  0.2372  0.0838  0.0128
  118OSM   H12S12342   4.531   3.882   6.416 -0.2131 -1.1556 -2.3607
  118OSM   H12T12343   4.596   3.705   6.407 -3.1002  0.2953  0.4270
  118OSM   C13S12344   4.733   3.862   6.384 -0.8172  0.3534 -0.2327
  118OSM   H13S12345   4.815   3.800   6.427 -0.2807  2.2285  1.6475
  118OSM   H13T12346   4.745   3.967   6.420  0.7527 -0.0013  0.3967
  118OSM   C14S12347   4.735   3.860   6.236 -0.2855  0.1128 -0.3659
  118OSM   H14S12348   4.634   3.901   6.213 -0.5161  2.0435  3.2677
  118OSM   H14T12349   4.755   3.754   6.213 -0.5464  0.2162 -1.0979
  118OSM   C15S12350   4.844   3.945   6.166 -0.1600 -0.1315 -0.5727
  118OSM   H15S12351   4.948   3.915   6.190  0.0441  0.3440 -0.8573
  118OSM   H15T12352   4.836   4.050   6.201  0.6151 -0.4201  0.5186
  118OSM   C16S12353   4.821   3.956   6.016 -1.0654 -0.0549  0.5355
  118OSM   H16S12354   4.731   4.018   5.993 -0.9830  0.2708  1.0851
  118OSM   H16T12355   4.818   3.855   5.970 -1.4845 -0.3555  1.2180
  118OSM   C17S12356   4.930   4.030   5.937  0.3890  0.0626 -0.1296
  118OSM   H17S12357   5.034   3.995   5.960 -0.4606 -2.0894  0.6942
  118OSM   H17T12358   4.932   4.134   5.977  0.1985 -0.3695  1.0417
  118OSM   C18S12359   4.901   4.024   5.780  0.6213 -0.5380  0.1457
  118OSM   H18S12360   4.974   4.083   5.721  0.7154 -0.6550  0.1456
  118OSM   H18T12361   4.798   4.061   5.760  0.8936 -0.6567 -1.6418
  118OSM   H18U12362   4.903   3.921   5.738 -1.5734  0.1209 -1.8383
  118OSM    C1F12363   4.004   3.792   7.459 -0.1966  1.0082 -0.8967
  118OSM     OF12364   4.040   3.891   7.517  0.0326  0.2722 -0.1898
  118OSM    C2F12365   3.882   3.781   7.395  0.5721  0.0021  0.7385
  118OSM    H2F12366   3.800   3.817   7.461 -0.0166 -0.4551  0.2693
  118OSM    H2G12367   3.855   3.679   7.360  0.0152 -0.6391  2.8303
  118OSM    C3F12368   3.873   3.900   7.289 -0.2646  0.2779  0.9004
  118OSM    H3F12369   3.874   4.000   7.338  2.4841  0.2146  1.0777
  118OSM    H3G12370   3.775   3.879   7.240 -0.8907  1.4578  1.5999
  118OSM    C4F12371   3.985   3.909   7.184  0.0467  0.2886  0.0811
  118OSM    H4F12372   4.077   3.908   7.247 -1.0220 -1.5012  1.7278
  118OSM    H4G12373   3.988   4.003   7.125  0.4487 -0.4637 -1.1163
  118OSM    C5F12374   3.974   3.798   7.078  0.9264 -0.2492 -0.2219
  118OSM    H5F12375   3.879   3.812   7.022  0.2404  0.5879  1.0966
  118OSM    H5G12376   3.972   3.700   7.132 -1.1627  0.0061  0.2454
  118OSM    C6F12377   4.095   3.801   6.983 -0.3467 -0.4898  0.4432
  118OSM    H6F12378   4.134   3.701   6.953 -1.7171 -0.5878 -1.1526
  118OSM    H6G12379   4.179   3.852   7.035  0.0301 -1.7851  1.1433
  118OSM    C7F12380   4.072   3.887   6.856  0.5986 -0.2610  0.9613
  118OSM    H7F12381   4.084   3.995   6.880  0.6703 -0.3570  1.3724
  118OSM    H7G12382   3.969   3.881   6.815  1.0777 -0.1122 -0.3035
  118OSM    C8F12383   4.160   3.847   6.733 -1.0711  0.1560  0.0948
  118OSM    H8F12384   4.129   3.746   6.698  1.2116 -0.4861 -0.2456
  118OSM    H8G12385   4.261   3.825   6.774 -1.9041 -3.9049  0.3910
  118OSM    C9F12386   4.173   3.944   6.618 -0.5840 -0.2124  0.4278
  118OSM    H9F12387   4.149   4.050   6.636 -0.3817  0.1524 -1.2584
  118OSM   C10F12388   4.170   3.914   6.485  0.0786  0.0322  0.7187
  118OSM   H10F12389   4.172   3.999   6.415  1.0396 -1.5813 -1.3421
  118OSM   C11F12390   4.170   3.775   6.423 -0.3493 -0.1484  0.4596
  118OSM   H11F12391   4.132   3.696   6.492  2.3645 -0.9274  1.1736
  118OSM   H11G12392   4.275   3.745   6.404 -0.2211  1.4603 -1.7088
  118OSM   C12F12393   4.099   3.772   6.283 -0.4657 -0.2621 -0.3416
  118OSM   H12F12394   3.990   3.789   6.302 -0.2518 -0.3325  1.0624
  118OSM   H12G12395   4.117   3.669   6.246  3.9955  0.4773 -0.6995
  118OSM   C13F12396   4.154   3.869   6.180 -0.2049  0.0894  0.6612
  118OSM   H13F12397   4.262   3.853   6.159 -0.1280  2.2686 -0.9627
  118OSM   H13G12398   4.135   3.970   6.221 -0.7235  0.0634  0.4818
  118OSM   C14F12399   4.074   3.860   6.042 -0.1164  0.1416 -0.6131
  118OSM   H14F12400   4.113   3.927   5.962 -0.8345  0.1281 -0.9806
  118OSM   H14G12401   3.967   3.880   6.064 -0.2654 -0.1272 -1.0807
  118OSM   C15F12402   4.091   3.723   5.967 -0.5773  0.1964 -0.6040
  118OSM   H15F12403   4.044   3.632   6.010 -1.1964 -0.8523 -3.2817
  118OSM   H15G12404   4.199   3.697   5.968 -0.4084  0.8928 -0.4878
  118OSM   C16F12405   4.036   3.743   5.824  0.3765 -0.1989 -0.2138
  118OSM   H16F12406   4.073   3.839   5.784  0.4311  0.1457  0.6375
  118OSM   H16G12407   3.927   3.756   5.843  0.7673 -0.4468  2.5440
  118OSM   C17F12408   4.051   3.624   5.732 -0.1738 -0.2943 -0.3845
  118OSM   H17F12409   4.025   3.529   5.782  0.4777 -0.8106 -1.0051
  118OSM   H17G12410   4.160   3.616   5.714 -0.1225  0.5158 -0.4775
  118OSM   C18F12411   3.971   3.636   5.604  0.2237  0.0703 -0.3242
  118OSM   H18F12412   3.971   3.740   5.566  0.5130  0.5023  0.8367
  118OSM   H18G12413   3.866   3.604   5.621 -0.0201  0.9734 -0.0748
  118OSM   H18H12414   4.006   3.560   5.530  3.1645  0.7128  0.2870
  119OSM      N12415   0.776   1.413   7.630 -0.0263 -0.2030  0.4178
  119OSM    C1512416   0.762   1.389   7.482 -0.7450 -0.6642 -0.1653
  119OSM   H15A12417   0.743   1.285   7.459  0.9081 -0.5356 -2.3924
  119OSM   H15B12418   0.855   1.418   7.434 -1.2089  0.8509 -0.1900
  119OSM   H15C12419   0.680   1.449   7.447 -0.5643  0.4362  1.2087
  119OSM    C1412420   0.805   1.554   7.653 -0.2951  0.1340  0.4253
  119OSM   H14A12421   0.904   1.582   7.620  0.1915 -1.3259  0.5569
  119OSM   H14B12422   0.791   1.579   7.757 -1.4946 -2.0807  0.8573
  119OSM   H14C12423   0.734   1.611   7.596  0.0686 -1.1922 -1.4433
  119OSM    C1312424   0.641   1.378   7.694 -0.6090  0.5266 -0.1069
  119OSM   H13A12425   0.558   1.443   7.672 -1.1218 -0.1046 -0.0680
  119OSM   H13B12426   0.653   1.371   7.801  2.3559 -0.2807 -0.4024
  119OSM   H13C12427   0.601   1.286   7.655  1.6216  0.3143 -2.1415
  119OSM    C1212428   0.884   1.324   7.689 -0.6295 -0.1053 -0.1614
  119OSM   H12A12429   0.859   1.222   7.663 -0.3346 -0.9230  2.4927
  119OSM   H12B12430   0.885   1.328   7.797  1.8831 -0.2701 -0.1166
  119OSM    C1112431   1.035   1.357   7.642 -0.2129 -0.8994  0.8914
  119OSM   H11A12432   1.020   1.372   7.533  1.3107  0.2682  0.8112
  119OSM   H11B12433   1.100   1.269   7.662 -0.5982 -1.1566  1.0306
  119OSM      P12434   1.213   1.559   7.652  0.1996 -0.0386  0.0361
  119OSM    O1312435   1.211   1.688   7.723  0.0450  0.2156 -0.2889
  119OSM    O1412436   1.332   1.476   7.672  0.3154 -0.6464 -0.3329
  119OSM    O1112437   1.173   1.587   7.497 -0.7301  0.2203 -0.0307
  119OSM    O1212438   1.090   1.472   7.704 -0.1031  0.0216 -0.1885
  119OSM    C1S12439   1.265   1.637   7.398 -0.2904  0.6231  0.2986
  119OSM    H1S12440   1.367   1.600   7.420 -0.5382 -1.6967 -1.9875
  119OSM    H1T12441   1.259   1.747   7.382 -1.5901  0.6644  0.9109
  119OSM     NF12442   1.326   1.631   7.161  0.2125  0.0273 -0.0238
  119OSM    HNF12443   1.296   1.707   7.104  1.8559  0.3653 -0.4973
  119OSM    C2S12444   1.236   1.577   7.259 -0.2082 -0.6081  0.6020
  119OSM    H2S12445   1.250   1.468   7.271 -2.0937 -0.8466  0.8457
  119OSM    C3S12446   1.095   1.611   7.222  0.6447 -0.2858 -0.1584
  119OSM    H3S12447   1.078   1.720   7.235 -0.8556 -0.6205  0.8932
  119OSM     O312448   1.001   1.566   7.310 -0.4171 -0.2581  0.2208
  119OSM    HO312449   1.050   1.554   7.392 -0.4151  0.4953  0.3348
  119OSM    C4S12450   1.063   1.553   7.089 -0.4749 -1.1386 -0.5154
  119OSM    H4S12451   1.101   1.455   7.055  1.7717 -0.4656 -0.1154
  119OSM    C5S12452   0.985   1.616   6.999 -0.0314  0.1293 -0.1178
  119OSM    H5S12453   0.950   1.719   7.014  2.7761  1.3051 -0.8706
  119OSM    C6S12454   0.959   1.569   6.861  0.2366 -0.7434 -0.1929
  119OSM    H6S12455   0.855   1.531   6.850  0.2608 -0.5592 -1.1402
  119OSM    H6T12456   1.021   1.480   6.834 -1.3409 -1.7305 -0.6694
  119OSM    C7S12457   0.990   1.682   6.761 -0.0402  0.0705 -0.3043
  119OSM    H7S12458   1.097   1.708   6.774  0.4227 -1.9276  0.2571
  119OSM    H7T12459   0.948   1.780   6.791  1.2131  0.2643  0.9285
  119OSM    C8S12460   0.951   1.645   6.621  0.1429 -0.8962  0.3151
  119OSM    H8S12461   0.853   1.593   6.632 -0.9670  0.9175 -0.5250
  119OSM    H8T12462   1.017   1.570   6.572 -1.5512 -1.8185 -0.6513
  119OSM    C9S12463   0.927   1.769   6.531  0.8320 -0.1779  0.3534
  119OSM    H9S12464   1.013   1.838   6.527 -0.4065  1.3906 -0.0456
  119OSM    H9T12465   0.837   1.821   6.570 -0.2529 -0.9303 -1.0323
  119OSM   C10S12466   0.901   1.725   6.382 -0.8380 -0.0912  0.1221
  119OSM   H10S12467   0.815   1.658   6.362  0.1232 -1.1609 -0.5377
  119OSM   H10T12468   0.987   1.666   6.345 -2.0257 -2.0745  0.3794
  119OSM   C11S12469   0.872   1.849   6.296 -0.2392  0.8693  0.9473
  119OSM   H11S12470   0.956   1.919   6.276 -0.7973  1.6059  1.1603
  119OSM   H11T12471   0.789   1.917   6.326 -0.8364  2.8232 -4.2002
  119OSM   C12S12472   0.839   1.800   6.155 -0.1368 -0.2377  0.4198
  119OSM   H12S12473   0.819   1.890   6.093 -0.2560  0.2102  1.0917
  119OSM   H12T12474   0.745   1.740   6.156 -0.7444  0.6920  0.7470
  119OSM   C13S12475   0.952   1.734   6.078  0.0521  0.3719 -0.2208
  119OSM   H13S12476   0.996   1.643   6.124 -0.1977  1.9385  3.4725
  119OSM   H13T12477   1.043   1.797   6.077  1.5356 -1.6594 -1.6509
  119OSM   C14S12478   0.922   1.709   5.930 -0.0417 -0.9116 -0.5679
  119OSM   H14S12479   0.909   1.802   5.871  1.8745 -1.6252 -2.2456
  119OSM   H14T12480   0.827   1.652   5.918 -1.3727  0.7604  1.3557
  119OSM   C15S12481   1.043   1.644   5.863 -0.5031 -0.4411  0.1091
  119OSM   H15S12482   1.094   1.556   5.907  0.9395 -0.4305 -1.4257
  119OSM   H15T12483   1.126   1.718   5.862 -0.5365 -0.3409  2.0764
  119OSM   C16S12484   1.019   1.609   5.712  0.0571  0.1146  0.2661
  119OSM   H16S12485   0.996   1.700   5.652 -0.5527 -0.3115 -0.1618
  119OSM   H16T12486   0.933   1.539   5.707  1.7169 -1.9481 -1.1859
  119OSM   C17S12487   1.135   1.528   5.643 -0.1854 -0.6968 -0.9393
  119OSM   H17S12488   1.136   1.425   5.684 -1.2201 -0.2625  0.2087
  119OSM   H17T12489   1.234   1.574   5.663 -1.3307  2.6254 -2.1590
  119OSM   C18S12490   1.121   1.526   5.495 -0.2367 -0.1232  0.3595
  119OSM   H18S12491   1.211   1.484   5.446 -0.6379 -3.0934  1.9484
  119OSM   H18T12492   1.096   1.630   5.467 -0.8632  0.1754  1.9288
  119OSM   H18U12493   1.037   1.460   5.467  0.9458 -1.6098  0.1735
  119OSM    C1F12494   1.454   1.629   7.159 -0.9040 -0.6680 -0.1069
  119OSM     OF12495   1.527   1.572   7.244  0.3917  0.1779  1.0060
  119OSM    C2F12496   1.523   1.722   7.056  0.0143  0.5954 -0.9707
  119OSM    H2F12497   1.607   1.766   7.114  0.9945 -2.0736 -0.2008
  119OSM    H2G12498   1.449   1.800   7.027 -0.4093  0.2731 -0.7768
  119OSM    C3F12499   1.593   1.645   6.936  0.9014 -0.0443  0.2275
  119OSM    H3F12500   1.675   1.581   6.976  0.5420 -0.8804 -0.3531
  119OSM    H3G12501   1.642   1.724   6.875  0.4908  0.9434  1.1436
  119OSM    C4F12502   1.508   1.568   6.840 -0.3563 -0.6829  0.0937
  119OSM    H4F12503   1.438   1.505   6.899  1.1270 -0.0475  2.6832
  119OSM    H4G12504   1.579   1.503   6.786  2.3098  0.3633  2.1384
  119OSM    C5F12505   1.431   1.660   6.733  0.1773  0.2622  0.0840
  119OSM    H5F12506   1.481   1.759   6.728  1.5698 -0.3441  1.1010
  119OSM    H5G12507   1.330   1.685   6.774  0.4263  0.6802  0.4545
  119OSM    C6F12508   1.422   1.587   6.593  0.4253 -0.1430  0.1316
  119OSM    H6F12509   1.353   1.500   6.600 -0.0674  0.3579  2.0522
  119OSM    H6G12510   1.526   1.556   6.568  0.0154  0.6984 -3.0648
  119OSM    C7F12511   1.372   1.685   6.482 -0.3552 -0.0796  0.0131
  119OSM    H7F12512   1.450   1.760   6.456  2.7668 -1.8787  3.1287
  119OSM    H7G12513   1.286   1.740   6.525  0.2652  0.1556  0.9955
  119OSM    C8F12514   1.351   1.605   6.346  0.1547  0.0910  0.3858
  119OSM    H8F12515   1.277   1.524   6.366  1.8416 -1.3131  1.1650
  119OSM    H8G12516   1.445   1.557   6.314  0.2241  0.2990  0.2731
  119OSM    C9F12517   1.307   1.695   6.233 -0.1429 -0.0706  0.1042
  119OSM    H9F12518   1.240   1.775   6.267  0.5651  0.3528  0.5093
  119OSM   C10F12519   1.357   1.698   6.110  0.4093 -0.0152  0.6969
  119OSM   H10F12520   1.306   1.770   6.043  0.0923 -0.5168  0.3899
  119OSM   C11F12521   1.457   1.602   6.052 -0.3251  1.0541  0.1608
  119OSM   H11F12522   1.525   1.553   6.125  0.6891  0.7315 -0.9568
  119OSM   H11G12523   1.533   1.653   5.988  1.7838 -0.3793  1.3852
  119OSM   C12F12524   1.379   1.497   5.974 -0.1269  0.5788  0.4218
  119OSM   H12F12525   1.449   1.450   5.902 -0.4404 -0.9982  1.1063
  119OSM   H12G12526   1.290   1.521   5.912 -0.7322  0.2041  1.1315
  119OSM   C13F12527   1.335   1.387   6.062  0.3939  0.7582 -0.4058
  119OSM   H13F12528   1.255   1.438   6.120  1.4841  0.4613  1.4371
  119OSM   H13G12529   1.402   1.349   6.142 -1.2259  0.2444  0.7738
  119OSM   C14F12530   1.257   1.269   5.985  0.1652 -0.3600 -0.1808
  119OSM   H14F12531   1.327   1.206   5.927  1.9941  1.2504  0.1579
  119OSM   H14G12532   1.187   1.323   5.917  0.3407  0.5847  0.3616
  119OSM   C15F12533   1.182   1.178   6.090 -0.0490 -0.0660 -0.1822
  119OSM   H15F12534   1.098   1.228   6.144 -1.8532 -2.1697 -0.9006
  119OSM   H15G12535   1.262   1.143   6.158  2.1098 -0.3580 -2.7045
  119OSM   C16F12536   1.115   1.052   6.035 -0.0233  0.5474 -0.5074
  119OSM   H16F12537   1.031   1.076   5.967  0.4014  1.1311 -0.8347
  119OSM   H16G12538   1.073   0.989   6.116  0.6732 -1.3669 -1.5827
  119OSM   C17F12539   1.215   0.958   5.974  0.2719  0.0012 -0.1514
  119OSM   H17F12540   1.272   1.007   5.892 -1.4126  1.9264 -0.2370
  119OSM   H17G12541   1.172   0.873   5.916 -1.1689  0.2512  0.5231
  119OSM   C18F12542   1.307   0.881   6.073  0.4017 -0.0296  0.6587
  119OSM   H18F12543   1.252   0.813   6.142 -1.4406  0.1853 -0.5225
  119OSM   H18G12544   1.367   0.936   6.148  2.4563 -1.1364 -0.1165
  119OSM   H18H12545   1.387   0.833   6.014  2.1759  1.6227  1.6064
  120OSM      N12546   2.233   0.534   7.907 -1.1848  0.4765  0.7297
  120OSM    C1512547   2.131   0.449   7.966 -0.0019  0.0544 -0.5575
  120OSM   H15A12548   2.128   0.352   7.918 -2.2840  0.1448 -0.7204
  120OSM   H15B12549   2.027   0.478   7.954 -0.8545 -1.2560  2.6333
  120OSM   H15C12550   2.151   0.434   8.071 -0.5714 -1.0176 -0.5870
  120OSM    C1412551   2.203   0.682   7.941  0.4393  0.4718 -1.0666
  120OSM   H14A12552   2.112   0.714   7.891 -1.3342 -3.4197 -0.7031
  120OSM   H14B12553   2.286   0.740   7.904  2.9321 -1.8731  0.4352
  120OSM   H14C12554   2.195   0.699   8.048 -0.3884  1.7689 -1.3071
  120OSM    C1312555   2.369   0.493   7.960 -0.3687  0.1178  0.3390
  120OSM   H13A12556   2.373   0.385   7.956  2.8239  0.1596  0.4491
  120OSM   H13B12557   2.392   0.529   8.059  1.4566 -0.2329  0.0657
  120OSM   H13C12558   2.440   0.531   7.888 -1.2029 -0.6781 -0.9631
  120OSM    C1212559   2.235   0.513   7.754  0.0836  0.8893 -0.8127
  120OSM   H12A12560   2.299   0.590   7.711 -1.5419  1.0819 -3.0404
  120OSM   H12B12561   2.135   0.530   7.719 -1.5550 -3.2237  1.2471
  120OSM    C1112562   2.274   0.374   7.708 -0.1582  0.3058  0.0581
  120OSM   H11A12563   2.382   0.355   7.729  1.1938  5.6073 -0.6652
  120OSM   H11B12564   2.277   0.374   7.597  2.9209  3.0500 -0.0290
  120OSM      P12565   2.064   0.220   7.695  0.0916  0.0048  0.0366
  120OSM    O1312566   2.025   0.092   7.762 -0.7051 -0.4000  0.1715
  120OSM    O1412567   1.960   0.322   7.704  0.6501 -0.4025 -0.8008
  120OSM    O1112568   2.101   0.180   7.548 -0.2873  0.0457  0.6467
  120OSM    O1212569   2.195   0.269   7.755  0.1939  0.6218  0.2497
  120OSM    C1S12570   2.205   0.084   7.511  0.1507  0.0819 -0.0872
  120OSM    H1S12571   2.177  -0.012   7.558 -0.8037  0.0234 -0.7423
  120OSM    H1T12572   2.298   0.130   7.550  0.2453 -0.1156 -0.0795
  120OSM     NF12573   2.325  -0.024   7.326  0.3736  0.4118 -0.1529
  120OSM    HNF12574   2.419   0.007   7.311  0.0325  0.6574 -2.0717
  120OSM    C2S12575   2.223   0.081   7.355  0.3226 -0.4251 -0.6553
  120OSM    H2S12576   2.125   0.039   7.324 -0.1732 -0.2276  0.5717
  120OSM    C3S12577   2.232   0.217   7.287 -0.4054  0.0989 -0.4550
  120OSM    H3S12578   2.328   0.264   7.316 -0.3734 -0.2275 -0.0262
  120OSM     O312579   2.149   0.325   7.323 -0.7242  0.1633 -0.5402
  120OSM    HO312580   2.101   0.292   7.400  2.6097 -0.2162  1.6149
  120OSM    C4S12581   2.241   0.207   7.134  0.2550 -0.0155 -0.1985
  120OSM    H4S12582   2.163   0.141   7.094  2.4365 -1.5728 -2.1912
  120OSM    C5S12583   2.332   0.264   7.050  0.0401  0.2708  0.3593
  120OSM    H5S12584   2.403   0.329   7.104  3.0833 -2.4203 -0.1156
  120OSM    C6S12585   2.333   0.256   6.895  0.4120 -0.0237 -0.2462
  120OSM    H6S12586   2.406   0.334   6.863  0.4685 -0.1291 -0.3745
  120OSM    H6T12587   2.236   0.296   6.858  1.2661  2.4736 -0.0308
  120OSM    C7S12588   2.375   0.121   6.827 -0.3505 -0.3490 -0.1200
  120OSM    H7S12589   2.325   0.034   6.875  0.4648 -0.5108  0.4524
  120OSM    H7T12590   2.482   0.119   6.858 -0.8104 -0.9019  1.5302
  120OSM    C8S12591   2.353   0.141   6.682  0.1666  0.4225 -0.7804
  120OSM    H8S12592   2.411   0.229   6.646  0.6247  1.1938  1.6291
  120OSM    H8T12593   2.244   0.152   6.662  0.2156 -0.4583 -1.5919
  120OSM    C9S12594   2.392   0.013   6.604 -0.5555 -0.4560 -0.4959
  120OSM    H9S12595   2.355  -0.071   6.667 -0.7003  1.1901  1.7545
  120OSM    H9T12596   2.503   0.017   6.593 -0.1471 -2.9892  1.7292
  120OSM   C10S12597   2.331   0.006   6.468 -0.1021  0.6713  0.2491
  120OSM   H10S12598   2.224   0.032   6.480 -0.7424 -1.9650  0.9038
  120OSM   H10T12599   2.327  -0.097   6.427 -2.1806  0.3916  1.0287
  120OSM   C11S12600   2.398   0.101   6.371  0.2881  0.2538  0.5558
  120OSM   H11S12601   2.504   0.072   6.362  0.3351  0.1987  1.2227
  120OSM   H11T12602   2.393   0.197   6.427  1.1879  1.5169 -1.4241
  120OSM   C12S12603   2.328   0.110   6.232  0.9564  0.2389  0.0705
  120OSM   H12S12604   2.370   0.187   6.165  0.2350 -2.4912 -3.8745
  120OSM   H12T12605   2.221   0.135   6.252  0.9825 -0.5656  1.3852
  120OSM   C13S12606   2.331  -0.019   6.141  0.0049 -0.8653  0.3236
  120OSM   H13S12607   2.251  -0.089   6.174 -0.9754 -0.3553 -0.9063
  120OSM   H13T12608   2.429  -0.071   6.145  0.6834  0.3004 -0.4438
  120OSM   C14S12609   2.311   0.016   5.997 -0.3675 -0.6755 -0.1533
  120OSM   H14S12610   2.397   0.084   5.977  0.8711 -1.8239  0.9788
  120OSM   H14T12611   2.217   0.074   5.992  0.7171  1.3860  1.7168
  120OSM   C15S12612   2.315  -0.108   5.900 -0.1674  0.1494 -0.4878
  120OSM   H15S12613   2.221  -0.166   5.901 -1.0714  1.5603 -0.3691
  120OSM   H15T12614   2.401  -0.176   5.917 -1.3916 -1.4721 -0.5058
  120OSM   C16S12615   2.331  -0.069   5.753  0.1073  0.0181  0.0847
  120OSM   H16S12616   2.440  -0.052   5.748  0.2040 -0.8167 -4.0266
  120OSM   H16T12617   2.284   0.025   5.716 -0.3859 -1.2202 -2.6819
  120OSM   C17S12618   2.291  -0.164   5.643 -0.6399 -0.1953 -0.7314
  120OSM   H17S12619   2.184  -0.192   5.650 -0.8688  0.5584 -1.0878
  120OSM   H17T12620   2.358  -0.252   5.652  0.9415  0.7608 -2.4571
  120OSM   C18S12621   2.342  -0.103   5.512  0.7254 -0.7892 -0.6908
  120OSM   H18S12622   2.452  -0.112   5.525  0.4910 -1.3191  1.1900
  120OSM   H18T12623   2.323   0.005   5.494  2.5544 -0.2020  0.6492
  120OSM   H18U12624   2.308  -0.170   5.430 -0.4675 -1.1671  0.0744
  120OSM    C1F12625   2.311  -0.157   7.337  0.6643  0.4565  0.1377
  120OSM     OF12626   2.194  -0.204   7.348 -0.2185 -0.0384 -0.3799
  120OSM    C2F12627   2.445  -0.233   7.327  0.3612 -0.9216  1.1503
  120OSM    H2F12628   2.465  -0.281   7.425  3.1323 -0.8336  0.6841
  120OSM    H2G12629   2.523  -0.154   7.317  0.1275 -0.9434 -1.8736
  120OSM    C3F12630   2.451  -0.325   7.207  0.5634  0.1530  0.6546
  120OSM    H3F12631   2.365  -0.394   7.198  1.9838 -1.8398  1.5717
  120OSM    H3G12632   2.546  -0.381   7.221  0.8140  0.6897  1.1445
  120OSM    C4F12633   2.444  -0.257   7.064  0.0886 -0.7420 -0.5133
  120OSM    H4F12634   2.490  -0.157   7.083 -2.8563  0.3735  1.5470
  120OSM    H4G12635   2.346  -0.236   7.016  1.2615  2.5080 -1.7989
  120OSM    C5F12636   2.526  -0.329   6.957  0.2204 -0.2999 -0.0534
  120OSM    H5F12637   2.495  -0.436   6.961 -0.9058  0.0387  0.5418
  120OSM    H5G12638   2.631  -0.327   6.994  0.0830  1.8640  0.3518
  120OSM    C6F12639   2.507  -0.271   6.815 -0.8281 -0.1204  0.0544
  120OSM    H6F12640   2.535  -0.164   6.806  1.1822 -0.6253 -0.3551
  120OSM    H6G12641   2.399  -0.285   6.797 -0.1961 -2.5971 -2.4786
  120OSM    C7F12642   2.586  -0.352   6.713  0.9784  0.1419  0.1234
  120OSM    H7F12643   2.595  -0.460   6.738  1.0627  0.1888  0.3015
  120OSM    H7G12644   2.690  -0.314   6.709  0.4570  1.5505 -1.5223
  120OSM    C8F12645   2.525  -0.336   6.576  0.4785  0.4899  0.4126
  120OSM    H8F12646   2.508  -0.227   6.559  0.3536  0.8219  2.3851
  120OSM    H8G12647   2.420  -0.369   6.590  0.7654 -0.7094 -0.2154
  120OSM    C9F12648   2.602  -0.409   6.471 -0.9698 -0.4577  0.8615
  120OSM    H9F12649   2.703  -0.371   6.451 -0.8855 -1.1508 -0.0966
  120OSM   C10F12650   2.558  -0.511   6.393  0.3925 -0.1606 -0.1646
  120OSM   H10F12651   2.627  -0.553   6.318  0.1336  0.0379 -0.5145
  120OSM   C11F12652   2.422  -0.567   6.397  0.1402 -0.3775 -0.5931
  120OSM   H11F12653   2.389  -0.565   6.503  1.0978 -0.6589 -0.2871
  120OSM   H11G12654   2.425  -0.676   6.379 -1.2939 -0.9487  2.1223
  120OSM   C12F12655   2.318  -0.510   6.297  0.1476 -0.4167  0.9692
  120OSM   H12F12656   2.312  -0.399   6.303 -0.7037 -0.1977 -2.2266
  120OSM   H12G12657   2.212  -0.541   6.310 -0.3309  0.5647 -0.3576
  120OSM   C13F12658   2.359  -0.557   6.153  0.1570 -0.8085 -0.3225
  120OSM   H13F12659   2.337  -0.666   6.146 -0.5438 -0.7205  0.4095
  120OSM   H13G12660   2.467  -0.538   6.137 -0.1657  1.2160 -0.3066
  120OSM   C14F12661   2.273  -0.486   6.042 -0.1184  0.2819  0.3014
  120OSM   H14F12662   2.303  -0.379   6.041  3.9437 -0.6668  1.4680
  120OSM   H14G12663   2.167  -0.493   6.075  0.2024  0.7458  1.4923
  120OSM   C15F12664   2.289  -0.537   5.894 -0.8193 -0.1632 -0.5012
  120OSM   H15F12665   2.393  -0.512   5.863 -0.2799 -1.5270  0.1618
  120OSM   H15G12666   2.209  -0.491   5.831 -0.2824 -0.2432 -1.2512
  120OSM   C16F12667   2.274  -0.691   5.880  0.1285  0.3121  0.1550
  120OSM   H16F12668   2.177  -0.711   5.929 -0.2148 -2.7875 -1.4985
  120OSM   H16G12669   2.356  -0.737   5.939  0.0028  0.1260  0.1863
  120OSM   C17F12670   2.274  -0.741   5.734  0.5151  0.5786 -0.0443
  120OSM   H17F12671   2.208  -0.680   5.669 -0.8581 -1.2235 -0.4178
  120OSM   H17G12672   2.239  -0.846   5.723  0.7275  0.6518 -1.7404
  120OSM   C18F12673   2.418  -0.725   5.676 -0.6295 -0.2369 -0.5487
  120OSM   H18F12674   2.486  -0.788   5.738 -0.8710 -0.4229 -0.4709
  120OSM   H18G12675   2.461  -0.622   5.674 -0.8191 -0.1624 -1.8950
  120OSM   H18H12676   2.433  -0.762   5.572 -0.2920 -0.0345 -0.5733
  121OSM      N12677   3.535   4.232   7.550  1.1483  0.0826 -0.1710
  121OSM    C1512678   3.613   4.352   7.577 -0.1233 -0.1388 -0.0996
  121OSM   H15A12679   3.555   4.424   7.633 -0.8911 -1.3675  0.7416
  121OSM   H15B12680   3.662   4.389   7.488  0.9932  0.8357  0.8793
  121OSM   H15C12681   3.696   4.333   7.643  0.1309  0.5872 -0.2027
  121OSM    C1412682   3.622   4.168   7.449  0.4047  0.4818 -0.3682
  121OSM   H14A12683   3.717   4.134   7.487  1.2789  1.1350 -1.8758
  121OSM   H14B12684   3.626   4.234   7.363 -1.5846  0.2437 -0.6926
  121OSM   H14C12685   3.573   4.077   7.418  1.0083  0.7628 -2.3093
  121OSM    C1312686   3.528   4.143   7.673  0.0101  0.4249  0.3915
  121OSM   H13A12687   3.475   4.051   7.650 -1.7024  2.1669 -3.3273
  121OSM   H13B12688   3.476   4.191   7.755  0.2687 -0.0081  0.8181
  121OSM   H13C12689   3.621   4.106   7.714 -0.9711 -0.2797  2.1386
  121OSM    C1212690   3.400   4.259   7.490  0.2449 -1.0732 -0.2660
  121OSM   H12A12691   3.396   4.329   7.409 -2.9718 -0.0120  0.6359
  121OSM   H12B12692   3.347   4.318   7.564  2.1643 -0.3621  0.6105
  121OSM    C1112693   3.323   4.138   7.436 -0.4835  0.5732 -0.4152
  121OSM   H11A12694   3.388   4.104   7.353  0.7789 -1.5745  1.3358
  121OSM   H11B12695   3.224   4.173   7.401 -1.0403 -0.5993 -0.0760
  121OSM      P12696   3.237   3.908   7.488 -0.0196 -0.0981 -0.1054
  121OSM    O1312697   3.280   3.798   7.577 -0.0434  0.0357 -0.2783
  121OSM    O1412698   3.093   3.935   7.468 -0.2922  0.3334  0.3840
  121OSM    O1112699   3.304   3.889   7.344 -0.4222 -0.1662 -0.2275
  121OSM    O1212700   3.304   4.038   7.540  0.3026 -0.2749 -0.2923
  121OSM    C1S12701   3.264   3.780   7.255  0.0001  0.0329  0.0263
  121OSM    H1S12702   3.161   3.741   7.275  0.1283 -0.4733 -0.2850
  121OSM    H1T12703   3.334   3.694   7.265 -2.2660 -2.2326 -1.9470
  121OSM     NF12704   3.180   3.734   7.033 -0.1471 -0.1271  0.7244
  121OSM    HNF12705   3.228   3.652   7.003 -0.7457  0.1655 -1.1738
  121OSM    C2S12706   3.260   3.828   7.108  0.3264  0.5867 -0.5268
  121OSM    H2S12707   3.212   3.928   7.100 -0.4449  0.2320 -0.4664
  121OSM    C3S12708   3.416   3.834   7.070  0.1272  0.0679  0.1833
  121OSM    H3S12709   3.455   3.731   7.088 -1.0347 -0.2286  1.1932
  121OSM     O312710   3.494   3.912   7.154 -0.3148 -0.0006 -0.2341
  121OSM    HO312711   3.434   3.931   7.227 -0.3888  2.0183 -0.7443
  121OSM    C4S12712   3.434   3.878   6.929 -0.2044 -0.8623 -0.6037
  121OSM    H4S12713   3.461   3.984   6.920  1.6413 -1.0950  1.4790
  121OSM    C5S12714   3.418   3.804   6.818  0.0501  0.5718  0.7912
  121OSM    H5S12715   3.373   3.704   6.821  1.1094 -0.0506 -1.6136
  121OSM    C6S12716   3.419   3.857   6.677 -0.3650 -0.1174 -0.4268
  121OSM    H6S12717   3.447   3.964   6.671 -1.1351  0.0108 -4.0481
  121OSM    H6T12718   3.313   3.855   6.643  0.1526  2.0836 -2.4397
  121OSM    C7S12719   3.508   3.772   6.578 -0.0027 -0.3778  0.3863
  121OSM    H7S12720   3.493   3.663   6.597  0.2877 -0.3720  0.6639
  121OSM    H7T12721   3.618   3.780   6.593  0.2370 -1.4509 -0.6270
  121OSM    C8S12722   3.484   3.814   6.435 -0.0937 -0.6219 -0.4768
  121OSM    H8S12723   3.494   3.924   6.422 -1.2568 -0.6910 -2.2962
  121OSM    H8T12724   3.377   3.791   6.415 -0.6230  1.0031  0.3041
  121OSM    C9S12725   3.581   3.739   6.349 -0.2064 -0.0042 -0.3953
  121OSM    H9S12726   3.553   3.632   6.345 -0.9110  0.0717  1.5871
  121OSM    H9T12727   3.684   3.758   6.386 -1.4843  0.8737  3.0807
  121OSM   C10S12728   3.563   3.780   6.206  0.8161  0.1602  0.2955
  121OSM   H10S12729   3.552   3.890   6.191  1.2877  0.3514  1.2291
  121OSM   H10T12730   3.470   3.731   6.171  2.0208 -0.8031 -1.7445
  121OSM   C11S12731   3.675   3.735   6.115 -0.2285  0.3552 -0.1420
  121OSM   H11S12732   3.711   3.635   6.146 -0.2988  0.2005 -0.5465
  121OSM   H11T12733   3.765   3.798   6.128  1.2304 -1.9112  1.3409
  121OSM   C12S12734   3.656   3.725   5.965  0.3638 -1.0756 -0.3218
  121OSM   H12S12735   3.756   3.693   5.929  1.7185  1.0218  1.3698
  121OSM   H12T12736   3.638   3.825   5.920  0.0952 -1.2709 -0.6571
  121OSM   C13S12737   3.543   3.631   5.913 -0.0293  0.3207 -0.5715
  121OSM   H13S12738   3.445   3.670   5.949  0.6573  0.2416  1.5409
  121OSM   H13T12739   3.550   3.532   5.961  1.6036  0.4882 -0.4002
  121OSM   C14S12740   3.534   3.623   5.759 -0.1431  0.2708 -0.1710
  121OSM   H14S12741   3.627   3.569   5.729  1.8027  2.8301  0.8771
  121OSM   H14T12742   3.535   3.724   5.714 -2.2774  0.1100 -0.6855
  121OSM   C15S12743   3.404   3.551   5.719  0.6676 -0.3743  0.0671
  121OSM   H15S12744   3.408   3.542   5.609 -1.6843  0.8767 -0.1983
  121OSM   H15T12745   3.315   3.615   5.739 -0.1431 -1.5279  0.2339
  121OSM   C16S12746   3.394   3.418   5.796  0.3135  0.3087 -0.4403
  121OSM   H16S12747   3.366   3.436   5.902  0.8934  2.5478 -0.6075
  121OSM   H16T12748   3.491   3.365   5.795 -0.9745 -2.2474  0.5948
  121OSM   C17S12749   3.295   3.327   5.721  0.2415 -0.1858  0.5694
  121OSM   H17S12750   3.196   3.376   5.707 -0.7588 -1.9229  1.2042
  121OSM   H17T12751   3.261   3.237   5.779 -1.2710 -0.1893 -0.2647
  121OSM   C18S12752   3.337   3.269   5.587 -0.1918  0.2105 -0.2365
  121OSM   H18S12753   3.423   3.200   5.594  1.4156  1.9079 -1.9658
  121OSM   H18T12754   3.370   3.340   5.508  0.2078 -0.8391 -1.0240
  121OSM   H18U12755   3.246   3.218   5.550  0.4053 -1.1946  0.1687
  121OSM    C1F12756   3.049   3.738   7.025 -0.0338 -0.2669 -0.7461
  121OSM     OF12757   2.989   3.833   7.069  0.1768 -0.4984  0.4663
  121OSM    C2F12758   2.987   3.620   6.954  0.3391  0.4370 -0.3923
  121OSM    H2F12759   2.907   3.579   7.020 -0.9790 -1.7598 -3.1548
  121OSM    H2G12760   3.055   3.537   6.927 -1.9871 -0.6833 -3.3708
  121OSM    C3F12761   2.949   3.640   6.810 -0.2556 -0.1559  0.5130
  121OSM    H3F12762   2.865   3.711   6.795 -0.5845 -0.1971  1.9989
  121OSM    H3G12763   2.903   3.546   6.772  0.5475 -1.2329  2.0722
  121OSM    C4F12764   3.063   3.683   6.716  0.2608  0.2703  0.2811
  121OSM    H4F12765   3.154   3.631   6.753 -0.2688 -1.9606 -1.3888
  121OSM    H4G12766   3.091   3.790   6.728 -1.7779  0.8505  0.2666
  121OSM    C5F12767   3.022   3.648   6.574  0.7032 -0.1503 -0.0617
  121OSM    H5F12768   2.919   3.680   6.546 -0.8177 -3.6581  0.9763
  121OSM    H5G12769   3.012   3.537   6.571  1.8205 -0.2684  0.1292
  121OSM    C6F12770   3.117   3.698   6.470 -0.7398 -0.0880 -0.8364
  121OSM    H6F12771   3.217   3.661   6.501 -0.9519  0.1681  0.1773
  121OSM    H6G12772   3.108   3.808   6.482 -0.9864 -0.2972  1.1717
  121OSM    C7F12773   3.093   3.634   6.334  0.0834  0.0056 -0.9796
  121OSM    H7F12774   3.002   3.683   6.293  0.4503 -1.5355 -3.8228
  121OSM    H7G12775   3.061   3.528   6.347 -1.3148  0.1907 -2.6023
  121OSM    C8F12776   3.204   3.651   6.226  0.4939  0.1252  0.2581
  121OSM    H8F12777   3.301   3.610   6.263  0.9556  1.9487  1.2034
  121OSM    H8G12778   3.215   3.758   6.197 -2.3566  0.6587  0.8457
  121OSM    C9F12779   3.172   3.568   6.103  0.2547 -0.4465 -0.8933
  121OSM    H9F12780   3.230   3.475   6.110 -1.8103 -1.6934  1.4779
  121OSM   C10F12781   3.079   3.591   6.013  0.8726  0.7505 -0.2756
  121OSM   H10F12782   3.076   3.518   5.931 -1.1426  0.0231  0.4001
  121OSM   C11F12783   2.997   3.719   6.005  0.7652  0.3445 -0.1708
  121OSM   H11F12784   3.020   3.781   6.094  1.1108  1.8227 -1.2620
  121OSM   H11G12785   2.891   3.685   6.012  1.4681 -1.7550  1.3540
  121OSM   C12F12786   3.037   3.792   5.879 -0.0316  0.3607  0.7897
  121OSM   H12F12787   3.145   3.814   5.866 -0.3660  0.6627 -2.3491
  121OSM   H12G12788   2.990   3.892   5.890 -1.3647  0.2865 -2.8709
  121OSM   C13F12789   2.987   3.739   5.740  0.5507  0.0766  0.2397
  121OSM   H13F12790   3.025   3.637   5.719 -0.4208 -0.3828  0.6361
  121OSM   H13G12791   3.029   3.801   5.658  0.0761  1.3338  0.9159
  121OSM   C14F12792   2.836   3.752   5.730 -0.1637 -0.8860  0.3022
  121OSM   H14F12793   2.812   3.853   5.768  0.5298 -0.4920 -0.2732
  121OSM   H14G12794   2.791   3.684   5.805 -1.4398 -2.3345 -1.6654
  121OSM   C15F12795   2.792   3.746   5.581 -0.4061 -0.2220 -0.8855
  121OSM   H15F12796   2.858   3.811   5.521 -1.2304  1.0105 -0.5078
  121OSM   H15G12797   2.691   3.791   5.569  0.0292  0.5522 -1.7873
  121OSM   C16F12798   2.795   3.604   5.531  0.1722  0.0088  0.0163
  121OSM   H16F12799   2.891   3.555   5.558  0.7242  0.6439 -0.7314
  121OSM   H16G12800   2.797   3.608   5.420  0.1442 -0.0719  0.0127
  121OSM   C17F12801   2.666   3.534   5.558 -0.5538  0.2551  0.1954
  121OSM   H17F12802   2.578   3.602   5.557  0.1960  1.2571 -0.9461
  121OSM   H17G12803   2.673   3.483   5.656 -1.5383  1.7170  1.0649
  121OSM   C18F12804   2.636   3.411   5.461 -0.1675 -0.3592  0.2831
  121OSM   H18F12805   2.543   3.359   5.491  0.2750 -1.0869  0.3974
  121OSM   H18G12806   2.725   3.345   5.463 -0.8954 -1.4152 -0.8104
  121OSM   H18H12807   2.638   3.458   5.360 -0.8848  0.1680  0.5042
  122OSM      N12808   4.851   5.006   7.671  0.8395 -1.0794  0.2481
  122OSM    C1512809   4.851   5.128   7.582 -0.1089  0.1682 -0.0733
  122OSM   H15A12810   4.784   5.201   7.624 -1.0284 -0.4044 -0.5205
  122OSM   H15B12811   4.830   5.110   7.478  2.5130  0.5663 -0.7450
  122OSM   H15C12812   4.946   5.179   7.584  0.4445 -0.8549  1.1586
  122OSM    C1412813   4.892   5.055   7.809  0.5997  0.2813 -0.0073
  122OSM   H14A12814   4.896   4.969   7.875  1.2505 -0.1677 -0.6157
  122OSM   H14B12815   4.816   5.120   7.849 -0.0128 -0.8614  0.7589
  122OSM   H14C12816   4.989   5.103   7.808  0.0836  1.3540 -2.0657
  122OSM    C1312817   4.713   4.954   7.674 -0.1345 -0.2156 -0.4524
  122OSM   H13A12818   4.698   4.897   7.584 -0.2772  1.2872 -1.4179
  122OSM   H13B12819   4.632   5.025   7.683 -1.5765 -1.9757  1.4707
  122OSM   H13C12820   4.698   4.880   7.751 -1.2665 -2.0669 -2.3394
  122OSM    C1212821   4.948   4.898   7.625 -0.0366 -0.3289  0.4995
  122OSM   H12A12822   5.051   4.932   7.619  0.1504 -0.5304  2.1219
  122OSM   H12B12823   4.922   4.858   7.528  1.5804 -0.2364 -0.0171
  122OSM    C1112824   4.956   4.771   7.715 -0.5077  0.2040  0.0720
  122OSM   H11A12825   4.985   4.809   7.815 -2.6900  2.9936 -0.2563
  122OSM   H11B12826   5.042   4.707   7.683  0.8698  2.2656 -0.5296
  122OSM      P12827   4.789   4.572   7.646 -0.2485  0.1464 -0.0696
  122OSM    O1312828   4.883   4.456   7.672 -0.1500 -0.7480  0.1204
  122OSM    O1412829   4.650   4.537   7.679 -0.4407 -0.1072  0.1505
  122OSM    O1112830   4.810   4.635   7.507 -0.2390 -0.4606 -0.0456
  122OSM    O1212831   4.837   4.697   7.733 -0.6079 -0.2479 -0.1849
  122OSM    C1S12832   4.925   4.604   7.429  0.4752  0.6031  0.0688
  122OSM    H1S12833   4.954   4.498   7.448  0.6363  0.8466  1.3030
  122OSM    H1T12834   5.015   4.665   7.453  0.3998  0.7923 -0.1245
  122OSM     NF12835   5.028   4.577   7.205 -0.6261  0.1794 -0.4492
  122OSM    HNF12836   5.099   4.642   7.180 -0.2952 -0.2818 -0.7124
  122OSM    C2S12837   4.908   4.621   7.272  0.2640 -0.0137 -0.1761
  122OSM    H2S12838   4.819   4.561   7.242 -0.6303  1.1296  0.0802
  122OSM    C3S12839   4.878   4.774   7.241  0.2249  0.2042 -0.4134
  122OSM    H3S12840   4.971   4.832   7.262  1.1396 -0.4836 -2.3072
  122OSM     O312841   4.772   4.834   7.314  0.1351 -0.2179  0.8609
  122OSM    HO312842   4.771   4.782   7.395  0.6919  1.8804  2.3064
  122OSM    C4S12843   4.841   4.792   7.100  0.6222  0.2501 -0.9386
  122OSM    H4S12844   4.773   4.717   7.058  0.3957  0.2141 -0.5182
  122OSM    C5S12845   4.890   4.884   7.014  0.2788  0.7832 -0.5829
  122OSM    H5S12846   4.941   4.974   7.052 -1.1118  1.1014  0.6296
  122OSM    C6S12847   4.866   4.882   6.870  0.4510 -0.1370 -0.2159
  122OSM    H6S12848   4.804   4.967   6.836  1.1601  0.4388 -0.1029
  122OSM    H6T12849   4.819   4.788   6.835  1.4444 -0.8070  0.1940
  122OSM    C7S12850   5.007   4.887   6.806 -0.0684 -0.3015  0.1701
  122OSM    H7S12851   5.057   4.790   6.827 -1.6800 -1.5695 -1.4504
  122OSM    H7T12852   5.064   4.962   6.864  1.5684 -2.3350  1.3276
  122OSM    C8S12853   5.005   4.914   6.663  0.1133 -0.2166  0.0738
  122OSM    H8S12854   4.971   4.824   6.607  1.3557 -0.9067  0.3876
  122OSM    H8T12855   5.105   4.942   6.623 -1.0894  1.9714 -1.6159
  122OSM    C9S12856   4.916   5.033   6.624 -0.7607 -0.1834  0.5526
  122OSM    H9S12857   4.927   5.118   6.694  0.0574  0.7630 -0.6827
  122OSM    H9T12858   4.815   4.987   6.617 -0.3875 -1.0383  0.7918
  122OSM   C10S12859   4.958   5.076   6.481 -0.2661 -0.5908 -0.4146
  122OSM   H10S12860   5.062   5.116   6.477 -0.2140 -0.7823 -1.0735
  122OSM   H10T12861   4.896   5.161   6.446  1.7196  0.5671 -1.3024
  122OSM   C11S12862   4.940   4.963   6.375 -0.2890  0.4689  1.0921
  122OSM   H11S12863   4.834   4.932   6.385  0.3933 -2.8748 -0.5405
  122OSM   H11T12864   4.995   4.869   6.396  0.0924  0.1999 -0.8650
  122OSM   C12S12865   4.952   5.014   6.235  0.4644  0.9908  0.5898
  122OSM   H12S12866   5.054   5.054   6.216  0.3861  1.7976  1.7821
  122OSM   H12T12867   4.882   5.097   6.211  0.2623  0.3485 -1.1733
  122OSM   C13S12868   4.938   4.899   6.130  0.5600 -0.4886  0.4705
  122OSM   H13S12869   4.834   4.860   6.135 -0.1915  1.5668  2.0394
  122OSM   H13T12870   5.010   4.816   6.143  0.0595 -0.7811  1.4588
  122OSM   C14S12871   4.965   4.944   5.978  0.3697  0.8755 -0.5954
  122OSM   H14S12872   4.995   4.858   5.915  4.6002  0.1379  1.9941
  122OSM   H14T12873   5.048   5.017   5.977 -1.4503  3.0585 -0.6714
  122OSM   C15S12874   4.861   5.036   5.927 -0.3772  0.1247  0.4180
  122OSM   H15S12875   4.858   5.128   5.989 -0.7928  0.9749 -0.8325
  122OSM   H15T12876   4.767   4.978   5.940 -0.4391  0.3897  1.2091
  122OSM   C16S12877   4.873   5.070   5.779  0.1267  0.7430  0.5192
  122OSM   H16S12878   4.964   5.133   5.776 -0.5898  1.8627  1.3684
  122OSM   H16T12879   4.788   5.138   5.758  0.1697  0.1829 -1.6510
  122OSM   C17S12880   4.879   4.947   5.691  1.1874 -0.1270  0.1185
  122OSM   H17S12881   4.824   4.863   5.738  1.5789 -0.8535 -0.6874
  122OSM   H17T12882   4.983   4.906   5.688  0.3733 -2.4807  1.5753
  122OSM   C18S12883   4.819   4.971   5.551 -0.5087 -0.3431  0.3408
  122OSM   H18S12884   4.831   4.882   5.486  1.2582 -0.7729  1.1905
  122OSM   H18T12885   4.881   5.053   5.510  1.1064 -1.2945  0.7980
  122OSM   H18U12886   4.718   5.017   5.557 -0.4369  0.1941 -1.8143
  122OSM    C1F12887   5.060   4.453   7.192  0.0841 -0.2408 -0.5724
  122OSM     OF12888   4.976   4.371   7.213  0.2598 -0.0542 -0.2803
  122OSM    C2F12889   5.200   4.422   7.165  0.2037  0.1499  0.0573
  122OSM    H2F12890   5.251   4.397   7.261 -0.5828  0.5527  0.5874
  122OSM    H2G12891   5.244   4.511   7.116 -1.5334  1.2446  0.4343
  122OSM    C3F12892   5.219   4.314   7.057  0.4018  0.8892  0.5520
  122OSM    H3F12893   5.171   4.226   7.105  0.2900 -0.8257 -2.4545
  122OSM    H3G12894   5.328   4.293   7.052  0.1591 -0.8374  1.6737
  122OSM    C4F12895   5.158   4.359   6.931  0.1774  0.3661  0.4266
  122OSM    H4F12896   5.048   4.374   6.930 -0.2798 -2.3563 -0.1635
  122OSM    H4G12897   5.163   4.263   6.874 -0.9283 -0.2136  1.2754
  122OSM    C5F12898   5.224   4.477   6.859  1.1223 -0.3001  0.4307
  122OSM    H5F12899   5.332   4.466   6.837  0.7622 -1.4239 -0.9468
  122OSM    H5G12900   5.211   4.571   6.916 -1.4939  0.9653 -1.9432
  122OSM    C6F12901   5.141   4.512   6.732  0.6769 -0.4485 -0.2783
  122OSM    H6F12902   5.163   4.619   6.714 -1.8135  0.0629 -0.5654
  122OSM    H6G12903   5.033   4.497   6.753  0.2323 -0.0989 -2.1401
  122OSM    C7F12904   5.176   4.447   6.593 -0.6712 -0.1533  0.1406
  122OSM    H7F12905   5.189   4.338   6.609 -3.6391 -1.0712 -2.6703
  122OSM    H7G12906   5.274   4.490   6.561 -0.8510 -1.5133 -2.5250
  122OSM    C8F12907   5.067   4.439   6.481 -0.0838  0.1337 -0.4241
  122OSM    H8F12908   4.987   4.383   6.534  0.6527  0.5326  1.2070
  122OSM    H8G12909   5.116   4.372   6.408  1.7191 -0.3029  1.1038
  122OSM    C9F12910   5.023   4.568   6.420  0.0722  0.2842  0.2946
  122OSM    H9F12911   5.029   4.656   6.485  0.9613  0.0623  0.5224
  122OSM   C10F12912   4.963   4.583   6.301  0.6253  0.5660 -0.0643
  122OSM   H10F12913   4.926   4.682   6.271 -0.7622  0.0247 -0.2042
  122OSM   C11F12914   4.931   4.477   6.203  0.0586  0.0081 -0.0975
  122OSM   H11F12915   4.820   4.472   6.197  0.1530 -3.4328 -1.6684
  122OSM   H11G12916   4.957   4.378   6.247 -0.8686  0.2365  0.9996
  122OSM   C12F12917   4.994   4.480   6.058 -0.2998 -0.1689  0.0306
  122OSM   H12F12918   4.968   4.571   6.001  3.2297  0.5699 -0.5936
  122OSM   H12G12919   4.966   4.383   6.012  0.4438  0.7295 -2.4781
  122OSM   C13F12920   5.151   4.483   6.072 -0.2641  0.0688  0.9755
  122OSM   H13F12921   5.179   4.410   6.151 -0.3188  0.1874  1.1051
  122OSM   H13G12922   5.175   4.584   6.112  3.9598 -1.0682  1.7811
  122OSM   C14F12923   5.216   4.449   5.937 -0.4882  0.5945 -0.3602
  122OSM   H14F12924   5.171   4.354   5.903 -0.1932  0.3855 -0.1720
  122OSM   H14G12925   5.324   4.431   5.953 -0.8315  0.7832  2.7335
  122OSM   C15F12926   5.208   4.576   5.848  0.5580 -0.5202  0.1738
  122OSM   H15F12927   5.265   4.657   5.898  0.4569 -1.8827  2.6617
  122OSM   H15G12928   5.103   4.610   5.835  1.8691  5.1993  1.8110
  122OSM   C16F12929   5.261   4.552   5.710 -0.7709  0.2278 -0.4220
  122OSM   H16F12930   5.208   4.470   5.656 -0.3226 -0.0348 -0.4696
  122OSM   H16G12931   5.365   4.515   5.725 -1.1247 -0.6848 -0.1391
  122OSM   C17F12932   5.245   4.686   5.632  0.1571  0.1888  0.5112
  122OSM   H17F12933   5.312   4.753   5.690  1.0169 -0.2626  0.0546
  122OSM   H17G12934   5.143   4.729   5.633  1.4627  3.7151 -0.3350
  122OSM   C18F12935   5.293   4.679   5.488 -0.0332  0.2424  0.2225
  122OSM   H18F12936   5.276   4.774   5.434 -2.3122 -0.6441 -0.7500
  122OSM   H18G12937   5.232   4.610   5.426 -0.8834  1.4787 -0.3552
  122OSM   H18H12938   5.401   4.654   5.475  0.2562  1.0099  1.0270
  123OSM      N12939   6.595   0.052   2.632  0.1553 -0.4125  0.3025
  123OSM    C1512940   6.527   0.110   2.522  0.8142 -0.5092 -0.2198
  123OSM   H15A12941   6.420   0.111   2.537  0.3932 -1.9269 -2.6744
  123OSM   H15B12942   6.530   0.056   2.429  2.4749 -0.8334 -0.0068
  123OSM   H15C12943   6.544   0.216   2.511 -2.8346  0.0467 -1.9247
  123OSM    C1412944   6.551  -0.089   2.662  0.2351  0.2732  0.2172
  123OSM   H14A12945   6.536  -0.152   2.575 -0.9252 -0.3274  0.8317
  123OSM   H14B12946   6.457  -0.091   2.714  1.6635 -1.9357  2.9601
  123OSM   H14C12947   6.618  -0.137   2.731 -2.1289  1.2020  3.4088
  123OSM    C1312948   6.744   0.034   2.596 -0.5892 -0.0602  0.6172
  123OSM   H13A12949   6.806   0.122   2.588  1.2950 -1.4096 -0.4921
  123OSM   H13B12950   6.752  -0.003   2.495 -1.1127  0.4977  0.3731
  123OSM   H13C12951   6.792  -0.037   2.663 -0.3468 -1.1696 -0.6917
  123OSM    C1212952   6.584   0.133   2.771  0.3525  0.5810 -0.3267
  123OSM   H12A12953   6.626   0.076   2.853 -2.4913 -2.2727 -0.6710
  123OSM   H12B12954   6.480   0.131   2.798  0.1602  1.5279 -0.9194
  123OSM    C1112955   6.630   0.283   2.785  0.9358 -0.3198  0.2225
  123OSM   H11A12956   6.588   0.328   2.878  0.7681 -0.4298  0.2017
  123OSM   H11B12957   6.572   0.328   2.701 -1.5738 -2.9771  0.3341
  123OSM      P12958   6.863   0.279   2.894  0.0944 -0.1397 -0.0478
  123OSM    O1312959   6.985   0.218   2.842 -0.3541 -0.6584  0.3538
  123OSM    O1412960   6.866   0.394   2.981 -0.8036 -0.0575 -0.5351
  123OSM    O1112961   6.791   0.165   2.970 -0.0620  0.3871 -0.4704
  123OSM    O1212962   6.763   0.307   2.773  0.5695 -0.0734 -0.2455
  123OSM    C1S12963   6.810   0.140   3.107 -0.6067  0.8226  0.1131
  123OSM    H1S12964   6.736   0.193   3.171 -0.3667  0.1189  0.9923
  123OSM    H1T12965   6.914   0.149   3.145 -0.2316 -0.6276 -0.5163
  123OSM     NF12966   6.825  -0.007   3.296  0.4073  0.5741  0.5373
  123OSM    HNF12967   6.907  -0.060   3.319  0.4443  0.4347  0.0960
  123OSM    C2S12968   6.782  -0.005   3.155  0.1205  0.3660 -0.3691
  123OSM    H2S12969   6.671  -0.012   3.150 -0.0512  0.1938  2.1487
  123OSM    C3S12970   6.844  -0.122   3.071  0.1004 -0.2934  0.2468
  123OSM    H3S12971   6.955  -0.109   3.067 -0.0587  1.7824  1.0631
  123OSM     O312972   6.813  -0.105   2.933 -0.3717  0.1555 -0.2790
  123OSM    HO312973   6.786  -0.013   2.938 -3.1842 -0.6456  2.2846
  123OSM    C4S12974   6.798  -0.249   3.126 -0.6165 -0.0751  0.5379
  123OSM    H4S12975   6.688  -0.257   3.137 -0.3748 -0.6078  3.6007
  123OSM    C5S12976   6.876  -0.344   3.167  0.3364  0.3037 -0.2293
  123OSM    H5S12977   6.986  -0.337   3.166  0.8041 -4.2320  0.2187
  123OSM    C6S12978   6.830  -0.473   3.231  0.2897  0.1170 -0.0302
  123OSM    H6S12979   6.865  -0.556   3.166 -2.3123  0.0850 -1.5235
  123OSM    H6T12980   6.719  -0.471   3.224  0.2646  3.4542 -0.8406
  123OSM    C7S12981   6.864  -0.492   3.375  0.9534 -0.0401  0.3467
  123OSM    H7S12982   6.975  -0.486   3.380  1.0342  0.6850 -1.4974
  123OSM    H7T12983   6.837  -0.596   3.402 -0.1990 -0.7588 -3.0102
  123OSM    C8S12984   6.792  -0.404   3.481 -0.2343 -0.0792  0.4447
  123OSM    H8S12985   6.686  -0.427   3.461 -0.2216  1.2340 -1.4562
  123OSM    H8T12986   6.814  -0.296   3.463  2.1845 -0.4278  0.9661
  123OSM    C9S12987   6.832  -0.454   3.619 -0.2264  0.3737  0.2031
  123OSM    H9S12988   6.939  -0.482   3.619 -0.5837 -1.1117  1.0589
  123OSM    H9T12989   6.782  -0.552   3.637  1.6256 -0.6432 -0.0007
  123OSM   C10S12990   6.797  -0.349   3.723 -0.1570 -0.1075  0.8124
  123OSM   H10S12991   6.688  -0.332   3.720 -0.0497  0.4348 -0.6205
  123OSM   H10T12992   6.846  -0.254   3.692 -0.8735 -0.1475 -0.4989
  123OSM   C11S12993   6.847  -0.392   3.855 -0.1742 -0.7326  0.2064
  123OSM   H11S12994   6.955  -0.368   3.854 -0.8598  3.0965  1.5098
  123OSM   H11T12995   6.836  -0.502   3.861  0.4288 -0.8831 -1.2407
  123OSM   C12S12996   6.774  -0.327   3.968  0.2048  0.3805  1.2132
  123OSM   H12S12997   6.665  -0.337   3.949  0.5811  0.9169 -1.6568
  123OSM   H12T12998   6.797  -0.219   3.957 -1.9455  0.7553 -0.1474
  123OSM   C13S12999   6.802  -0.372   4.108 -0.1601 -0.5779 -0.1294
  123OSM   H13S13000   6.781  -0.481   4.110  1.2471 -0.8772  1.3771
  123OSM   H13T13001   6.730  -0.321   4.176 -0.7158 -0.5395 -0.7420
  123OSM   C14S13002   6.950  -0.354   4.164 -0.2381 -0.7376 -0.2043
  123OSM   H14S13003   6.970  -0.246   4.175  2.1221 -1.2882  2.0817
  123OSM   H14T13004   7.013  -0.407   4.089  2.1036  1.4513  0.0752
  123OSM   C15S13005   6.977  -0.423   4.296  0.3550 -0.4069  0.4081
  123OSM   H15S13006   6.914  -0.375   4.374  0.7626 -0.6493  0.8937
  123OSM   H15T13007   7.079  -0.412   4.340  0.2235 -0.9062  0.8434
  123OSM   C16S13008   6.951  -0.570   4.282  0.0840  0.0058 -0.7234
  123OSM   H16S13009   7.020  -0.608   4.203 -1.9876 -1.9284 -1.7083
  123OSM   H16T13010   6.849  -0.600   4.249 -0.3457 -0.9814  1.3121
  123OSM   C17S13011   6.998  -0.638   4.415 -0.5220 -0.3079  0.4743
  123OSM   H17S13012   6.954  -0.739   4.408 -2.0197  0.4319 -3.1759
  123OSM   H17T13013   6.953  -0.581   4.499  1.6514  1.4439  0.5632
  123OSM   C18S13014   7.148  -0.655   4.432 -0.4057  0.3559  0.0447
  123OSM   H18S13015   7.185  -0.729   4.357  0.5544  0.8170  0.0426
  123OSM   H18T13016   7.178  -0.694   4.532 -2.5263  0.1533  0.6505
  123OSM   H18U13017   7.209  -0.565   4.409 -1.8770  1.8785  1.8421
  123OSM    C1F13018   6.753   0.035   3.397  0.2705 -0.2937 -0.0757
  123OSM     OF13019   6.658   0.110   3.377  0.0450 -0.4518 -0.3685
  123OSM    C2F13020   6.814   0.014   3.529  0.3336  0.5278  0.2075
  123OSM    H2F13021   6.905   0.079   3.526  1.1023 -0.5455 -1.2679
  123OSM    H2G13022   6.847  -0.092   3.540  0.6046  0.5255 -0.5616
  123OSM    C3F13023   6.717   0.058   3.646  0.1853  0.3491 -0.2819
  123OSM    H3F13024   6.638  -0.020   3.657 -0.1217  0.7254  0.1975
  123OSM    H3G13025   6.662   0.153   3.632 -0.9782 -0.2580  0.0963
  123OSM    C4F13026   6.792   0.073   3.785  0.6193 -0.3263  0.2254
  123OSM    H4F13027   6.855   0.164   3.782 -1.3871  1.1112 -0.4525
  123OSM    H4G13028   6.843  -0.024   3.804 -2.3911 -1.4638  3.7026
  123OSM    C5F13029   6.691   0.093   3.897  0.2365  0.2009 -0.6955
  123OSM    H5F13030   6.620   0.007   3.897  0.9796 -0.4752  1.5911
  123OSM    H5G13031   6.643   0.193   3.889 -1.2116 -0.4487 -0.4838
  123OSM    C6F13032   6.765   0.084   4.029  0.4360  0.7727 -0.8222
  123OSM    H6F13033   6.856   0.148   4.038  1.3106 -0.6940  2.2486
  123OSM    H6G13034   6.799  -0.021   4.048 -0.4241  0.2368 -2.1045
  123OSM    C7F13035   6.671   0.118   4.147  1.1026 -0.0454 -0.4498
  123OSM    H7F13036   6.568   0.080   4.132  1.6233 -1.5370 -0.4327
  123OSM    H7G13037   6.663   0.229   4.143 -3.2011 -0.1924 -0.5240
  123OSM    C8F13038   6.731   0.078   4.284  0.4875 -0.1141 -0.1962
  123OSM    H8F13039   6.799   0.161   4.315  0.6318 -1.2915  2.9571
  123OSM    H8G13040   6.800  -0.009   4.286  0.4106 -0.1692  0.1312
  123OSM    C9F13041   6.634   0.063   4.405 -0.0807 -0.5210  0.1949
  123OSM    H9F13042   6.532   0.091   4.375 -0.5431 -0.4815  1.7386
  123OSM   C10F13043   6.641  -0.011   4.518 -0.1237  0.6145  0.4230
  123OSM   H10F13044   6.547  -0.008   4.575 -0.1891  0.2757  0.3360
  123OSM   C11F13045   6.756  -0.075   4.583 -0.2933  0.2904  0.1401
  123OSM   H11F13046   6.850  -0.051   4.529 -0.0999 -1.3259 -0.2982
  123OSM   H11G13047   6.746  -0.185   4.602 -0.5145  0.4691  1.1269
  123OSM   C12F13048   6.788  -0.004   4.716  0.5782  0.3697 -0.6152
  123OSM   H12F13049   6.687   0.002   4.762  1.0488  1.2826  0.3196
  123OSM   H12G13050   6.825   0.099   4.698  0.2383  0.9095  1.5967
  123OSM   C13F13051   6.883  -0.083   4.816 -0.8856  0.0836 -0.4995
  123OSM   H13F13052   6.973  -0.115   4.759 -1.5468 -1.3882 -0.7651
  123OSM   H13G13053   6.848  -0.181   4.854  2.3078 -1.6968 -1.7077
  123OSM   C14F13054   6.937   0.000   4.934 -0.2531  0.1873  0.5033
  123OSM   H14F13055   7.006  -0.064   4.993  3.0009  2.2386 -0.7915
  123OSM   H14G13056   6.850   0.021   5.000  0.6533  1.6993  1.2636
  123OSM   C15F13057   7.013   0.127   4.904 -0.0607  0.0753  0.9567
  123OSM   H15F13058   6.947   0.198   4.850  0.5021 -0.2905 -0.2659
  123OSM   H15G13059   7.087   0.094   4.827 -3.0987 -0.7194 -1.8514
  123OSM   C16F13060   7.062   0.203   5.033 -0.1196 -0.0006 -0.4047
  123OSM   H16F13061   6.970   0.214   5.093 -0.3855 -1.4624 -0.5036
  123OSM   H16G13062   7.109   0.300   5.004 -0.7057  0.2344 -0.5777
  123OSM   C17F13063   7.167   0.127   5.110  0.8415  0.0844  0.3033
  123OSM   H17F13064   7.253   0.117   5.040  0.2492  0.6876 -0.5224
  123OSM   H17G13065   7.135   0.021   5.119  1.1722 -0.0067  0.4171
  123OSM   C18F13066   7.206   0.183   5.248  0.4644  0.1578  0.9376
  123OSM   H18F13067   7.135   0.150   5.327 -3.0548  0.3754 -1.9000
  123OSM   H18G13068   7.214   0.294   5.238 -0.6452  0.0572 -2.0031
  123OSM   H18H13069   7.302   0.145   5.288 -0.4174 -0.9255  2.1207
  124OSM      N13070   6.036   2.438   2.851  0.5933 -0.3121  0.0519
  124OSM    C1513071   5.892   2.452   2.803 -0.3134 -0.0700 -0.8354
  124OSM   H15A13072   5.822   2.496   2.873 -1.8300 -0.7734 -1.8468
  124OSM   H15B13073   5.853   2.351   2.793 -0.5701  0.1443 -2.2731
  124OSM   H15C13074   5.882   2.514   2.715 -2.3254  2.2282  0.8813
  124OSM    C1413075   6.105   2.364   2.744  1.1828  0.2791 -0.0221
  124OSM   H14A13076   6.073   2.261   2.744 -0.9947  0.8852 -1.8422
  124OSM   H14B13077   6.210   2.360   2.770  1.3949  1.1023 -0.6950
  124OSM   H14C13078   6.094   2.412   2.648 -0.4329  1.5307  0.7587
  124OSM    C1313079   6.106   2.562   2.861 -0.1875 -0.4214  0.7200
  124OSM   H13A13080   6.214   2.565   2.856 -0.1673 -1.3970  0.3547
  124OSM   H13B13081   6.074   2.609   2.952  1.6476  0.8472  0.7487
  124OSM   H13C13082   6.078   2.623   2.776  2.3460 -1.2333 -0.8219
  124OSM    C1213083   6.036   2.356   2.985  0.4410  0.0503  0.1198
  124OSM   H12A13084   5.996   2.415   3.067  1.8749  0.9983  0.1731
  124OSM   H12B13085   6.136   2.323   3.006  0.8387 -0.5860 -2.4175
  124OSM    C1113086   5.960   2.213   2.979 -0.6823 -0.2397 -0.4039
  124OSM   H11A13087   5.994   2.158   3.069  0.6403  0.1904 -0.6185
  124OSM   H11B13088   6.008   2.165   2.891  0.9641  1.1536 -0.3124
  124OSM      P13089   5.726   2.094   2.965 -0.9471  0.3182  0.0269
  124OSM    O1313090   5.591   2.138   2.931  1.0581 -0.2368  0.4636
  124OSM    O1413091   5.792   1.995   2.870 -0.0554 -0.5755  0.1988
  124OSM    O1113092   5.726   2.041   3.115 -0.4258 -0.0044 -0.1851
  124OSM    O1213093   5.815   2.231   2.957 -0.5984  0.1457  0.3121
  124OSM    C1S13094   5.726   2.135   3.220 -0.4674  0.4610  0.0736
  124OSM    H1S13095   5.635   2.199   3.218  0.3749  1.6784 -0.9716
  124OSM    H1T13096   5.811   2.207   3.214  0.5046 -0.5668  1.0619
  124OSM     NF13097   5.704   2.112   3.479 -0.0279  0.4753  0.3746
  124OSM    HNF13098   5.778   2.155   3.530  1.0519  0.8796 -1.4607
  124OSM    C2S13099   5.749   2.048   3.353  0.4506  1.4167  0.1685
  124OSM    H2S13100   5.683   1.960   3.339 -0.5494  2.1212  0.3497
  124OSM    C3S13101   5.899   1.985   3.354 -0.6064 -0.0166  0.7025
  124OSM    H3S13102   5.964   2.074   3.357 -0.6510  0.1568 -1.6199
  124OSM     O313103   5.950   1.938   3.231 -0.6142  0.3584  0.0046
  124OSM    HO313104   5.887   1.959   3.161  0.0925  1.9860 -0.1943
  124OSM    C4S13105   5.920   1.891   3.472 -0.0731 -0.5870 -0.4605
  124OSM    H4S13106   5.943   1.950   3.561  0.0837  0.8975 -1.4486
  124OSM    C5S13107   5.920   1.759   3.474 -0.2768 -0.0927 -0.7169
  124OSM    H5S13108   5.898   1.702   3.383  1.4266 -1.4654 -0.3074
  124OSM    C6S13109   5.940   1.675   3.593  0.1255 -0.2001 -0.5718
  124OSM    H6S13110   6.008   1.588   3.577 -0.9890 -1.1144 -0.5238
  124OSM    H6T13111   5.840   1.640   3.626  1.0234 -0.2611  2.3649
  124OSM    C7S13112   5.990   1.745   3.723 -0.2303 -0.1731  0.4353
  124OSM    H7S13113   5.910   1.819   3.747 -0.1537 -0.4504  1.5851
  124OSM    H7T13114   6.080   1.804   3.695 -1.6754  0.1765 -4.4644
  124OSM    C8S13115   6.013   1.648   3.841  0.8088 -0.4897  0.1945
  124OSM    H8S13116   6.102   1.582   3.833  1.9666  0.9753  0.3763
  124OSM    H8T13117   5.937   1.568   3.851  1.2980 -0.9574  0.2175
  124OSM    C9S13118   6.021   1.739   3.966  0.1756  0.1306  0.1175
  124OSM    H9S13119   5.934   1.807   3.974 -0.8974 -1.3906  2.8144
  124OSM    H9T13120   6.108   1.806   3.950  0.8115 -0.7021 -0.0076
  124OSM   C10S13121   6.042   1.657   4.100  0.7104 -0.7741 -0.5900
  124OSM   H10S13122   6.141   1.608   4.097  1.3556  0.2508  1.5967
  124OSM   H10T13123   5.966   1.576   4.104 -1.4088  1.1116 -0.0528
  124OSM   C11S13124   6.032   1.751   4.227 -0.2649 -0.0490  0.1958
  124OSM   H11S13125   5.991   1.681   4.303 -1.2132  1.4274  1.0755
  124OSM   H11T13126   5.956   1.830   4.213 -1.6774 -1.8214 -3.5660
  124OSM   C12S13127   6.155   1.825   4.278  0.1098 -0.3238 -0.2307
  124OSM   H12S13128   6.183   1.911   4.213 -0.8786  0.4329  0.3100
  124OSM   H12T13129   6.235   1.749   4.280 -0.8628 -1.3797 -0.3498
  124OSM   C13S13130   6.148   1.871   4.418  0.4258 -0.9011  0.2193
  124OSM   H13S13131   6.117   1.783   4.478 -0.6187  0.0901  1.1884
  124OSM   H13T13132   6.069   1.949   4.418  1.1881 -0.0957 -0.8342
  124OSM   C14S13133   6.274   1.936   4.468 -0.2674 -0.6039 -0.4711
  124OSM   H14S13134   6.289   2.023   4.401 -0.8658  0.5569  0.8458
  124OSM   H14T13135   6.361   1.868   4.458 -0.4823 -1.2266  1.3771
  124OSM   C15S13136   6.257   1.993   4.610  0.0567  0.0854 -0.6377
  124OSM   H15S13137   6.231   1.906   4.673  0.3835  0.5237  0.1202
  124OSM   H15T13138   6.178   2.071   4.620  0.8548  0.6905  1.4276
  124OSM   C16S13139   6.388   2.048   4.663 -0.0975 -0.1428  0.0715
  124OSM   H16S13140   6.420   2.147   4.624  1.8915 -0.7653  0.0384
  124OSM   H16T13141   6.468   1.977   4.635 -1.5728 -1.3077 -1.3830
  124OSM   C17S13142   6.382   2.086   4.815  0.0336  0.8612  0.0549
  124OSM   H17S13143   6.385   1.992   4.873  0.5341  1.9645  1.8825
  124OSM   H17T13144   6.283   2.127   4.846 -0.2931  0.0225  0.1310
  124OSM   C18S13145   6.498   2.175   4.876 -0.0790  0.3498 -0.2487
  124OSM   H18S13146   6.489   2.278   4.833  1.0500 -0.0047 -1.3940
  124OSM   H18T13147   6.595   2.129   4.847 -0.0609  0.2872 -0.0863
  124OSM   H18U13148   6.484   2.192   4.984  0.4623 -0.1489 -0.0948
  124OSM    C1F13149   5.580   2.149   3.498 -0.4284  0.0941  0.2100
  124OSM     OF13150   5.493   2.131   3.415  0.3157  0.0856  0.0952
  124OSM    C2F13151   5.538   2.201   3.629  0.8648  0.0025  0.0619
  124OSM    H2F13152   5.622   2.246   3.687  0.6361  1.2928 -0.5718
  124OSM    H2G13153   5.516   2.116   3.696 -0.2448  1.6029  1.8100
  124OSM    C3F13154   5.434   2.312   3.612  0.4135 -0.8563  0.1981
  124OSM    H3F13155   5.347   2.282   3.548  1.2672 -1.2712 -0.8028
  124OSM    H3G13156   5.480   2.390   3.548 -0.4939  0.1066  0.6951
  124OSM    C4F13157   5.376   2.366   3.744  0.2792 -0.4285  0.0929
  124OSM    H4F13158   5.340   2.281   3.806 -2.6981 -1.1344 -2.3816
  124OSM    H4G13159   5.286   2.423   3.714  0.0016  0.1862  1.9774
  124OSM    C5F13160   5.468   2.460   3.825  0.0229  0.3925 -0.0597
  124OSM    H5F13161   5.407   2.549   3.850  1.1080  1.5464 -1.3782
  124OSM    H5G13162   5.543   2.490   3.749 -1.3602 -0.3163 -1.7946
  124OSM    C6F13163   5.523   2.401   3.950  0.6624  0.1552  0.1971
  124OSM    H6F13164   5.577   2.309   3.920  2.0324  0.9505  0.1588
  124OSM    H6G13165   5.447   2.380   4.029  1.2285  2.8102  1.5673
  124OSM    C7F13166   5.623   2.503   4.011 -0.4566  0.8741  0.3067
  124OSM    H7F13167   5.572   2.597   4.043 -3.6601 -0.8792  0.7847
  124OSM    H7G13168   5.696   2.525   3.930  0.6200 -0.9577  0.7159
  124OSM    C8F13169   5.699   2.445   4.124  0.0762  0.3385  0.6358
  124OSM    H8F13170   5.775   2.521   4.151  0.0561 -0.2034  2.3196
  124OSM    H8G13171   5.757   2.357   4.088 -0.2675  1.1466 -2.1206
  124OSM    C9F13172   5.618   2.412   4.244 -0.5630  0.0436 -0.4414
  124OSM    H9F13173   5.525   2.357   4.222 -1.0781  0.3246  0.9790
  124OSM   C10F13174   5.633   2.461   4.372 -0.8072 -0.2885  0.4633
  124OSM   H10F13175   5.559   2.432   4.447  0.8574  1.4165  2.9292
  124OSM   C11F13176   5.746   2.545   4.431 -0.3956 -0.6835  0.7849
  124OSM   H11F13177   5.732   2.651   4.399 -2.2755 -0.7949  1.1541
  124OSM   H11G13178   5.848   2.519   4.395 -0.1404 -1.3092  1.9207
  124OSM   C12F13179   5.732   2.550   4.584  0.3370  0.2842 -0.3164
  124OSM   H12F13180   5.734   2.445   4.621 -1.3212  0.5262  0.5438
  124OSM   H12G13181   5.633   2.590   4.614  1.0182  0.4457  1.8733
  124OSM   C13F13182   5.846   2.607   4.668 -0.2601 -0.3968  0.1253
  124OSM   H13F13183   5.894   2.698   4.626  0.5266 -1.1973 -0.7814
  124OSM   H13G13184   5.932   2.538   4.653 -1.6110 -1.8970 -1.1363
  124OSM   C14F13185   5.812   2.613   4.821 -0.0873  0.0107  0.1609
  124OSM   H14F13186   5.745   2.526   4.834 -1.6343  1.4227  2.1162
  124OSM   H14G13187   5.756   2.709   4.826  1.2641  0.9761 -1.6715
  124OSM   C15F13188   5.935   2.607   4.908  0.7683 -0.3739 -0.5504
  124OSM   H15F13189   5.906   2.639   5.011  0.9447 -2.8725  0.3449
  124OSM   H15G13190   6.012   2.681   4.878  0.1158  0.9484  0.8985
  124OSM   C16F13191   5.992   2.462   4.913 -0.2209 -0.0275 -0.2962
  124OSM   H16F13192   6.053   2.456   4.820 -0.0254  1.2134 -0.2698
  124OSM   H16G13193   5.904   2.396   4.907 -1.6806  1.7758  0.2826
  124OSM   C17F13194   6.078   2.424   5.037  0.3209 -0.4465 -0.3302
  124OSM   H17F13195   6.072   2.315   5.057 -2.8245  0.0597  2.4080
  124OSM   H17G13196   6.019   2.471   5.119  0.9183  0.3414 -0.3455
  124OSM   C18F13197   6.224   2.476   5.023  0.3386 -1.2945  0.1135
  124OSM   H18F13198   6.279   2.431   4.937  0.7239 -1.4246  0.4223
  124OSM   H18G13199   6.294   2.454   5.106  1.2522 -0.7495 -0.4882
  124OSM   H18H13200   6.212   2.584   5.001  2.9087 -0.7924  0.7511
  125OSM      N13201   6.095   6.161   2.431  0.6309 -0.2940  0.2385
  125OSM    C1513202   6.208   6.129   2.341 -0.2024  0.4797 -0.1010
  125OSM   H15A13203   6.221   6.206   2.267 -1.9714  1.1753  0.2638
  125OSM   H15B13204   6.201   6.038   2.283  0.8099  0.3361 -0.0098
  125OSM   H15C13205   6.293   6.131   2.407 -1.6021 -0.3887  1.8385
  125OSM    C1413206   6.104   6.300   2.467 -0.7308 -0.2090 -0.1440
  125OSM   H14A13207   6.202   6.321   2.507 -0.0612 -1.8749 -0.8470
  125OSM   H14B13208   6.033   6.330   2.543  1.6751 -1.2925  2.7480
  125OSM   H14C13209   6.099   6.356   2.375  0.3138  0.1074 -0.0225
  125OSM    C1313210   5.959   6.135   2.368  0.1026  0.0838 -0.6125
  125OSM   H13A13211   5.949   6.189   2.275  2.4999  0.1932 -0.8652
  125OSM   H13B13212   5.881   6.173   2.434  0.9747  0.2138  0.3675
  125OSM   H13C13213   5.942   6.029   2.355 -0.2676  0.1806 -0.9357
  125OSM    C1213214   6.108   6.081   2.561 -0.4455 -0.0513 -0.2378
  125OSM   H12A13215   6.210   6.100   2.590  0.1539 -0.0300 -2.2356
  125OSM   H12B13216   6.110   5.977   2.534  1.1178  0.0090 -0.4419
  125OSM    C1113217   6.020   6.111   2.680 -0.1212 -0.0987  0.1254
  125OSM   H11A13218   6.037   6.039   2.763 -0.3574 -0.0863  0.1847
  125OSM   H11B13219   5.914   6.106   2.647 -0.3407  0.2674  0.7712
  125OSM      P13220   5.930   6.337   2.799 -0.4010  0.5416 -0.2397
  125OSM    O1313221   5.996   6.458   2.862 -0.0837 -0.3674  0.1129
  125OSM    O1413222   5.835   6.372   2.694  0.2196 -0.1129 -0.1043
  125OSM    O1113223   5.869   6.239   2.911 -0.1491 -0.2807 -0.1562
  125OSM    O1213224   6.045   6.248   2.732  0.3163  1.3369 -0.6941
  125OSM    C1S13225   5.954   6.184   3.007  0.6850 -0.0588  0.3075
  125OSM    H1S13226   6.048   6.139   2.968  1.3670  1.1742  0.4912
  125OSM    H1T13227   5.898   6.098   3.051  1.7557 -0.7288  0.3875
  125OSM     NF13228   6.066   6.195   3.224 -0.6184 -0.4896  0.6861
  125OSM    HNF13229   6.022   6.171   3.310 -2.9604  1.9900  0.2983
  125OSM    C2S13230   5.987   6.276   3.134  0.0527 -0.0009  0.4440
  125OSM    H2S13231   6.057   6.353   3.094 -1.2053 -1.1229 -4.6171
  125OSM    C3S13232   5.859   6.334   3.195 -0.6579  0.2441  0.2104
  125OSM    H3S13233   5.789   6.253   3.223  0.4242 -0.1299  2.0092
  125OSM     O313234   5.785   6.413   3.105  0.5380 -1.0206 -0.0170
  125OSM    HO313235   5.827   6.387   3.023 -0.4756 -0.1075 -0.8635
  125OSM    C4S13236   5.875   6.413   3.325  0.0659  0.4029 -0.5242
  125OSM    H4S13237   5.849   6.366   3.420  0.7337  0.5117 -0.2818
  125OSM    C5S13238   5.901   6.541   3.331 -0.6460  0.4776 -0.6337
  125OSM    H5S13239   5.905   6.594   3.234 -1.7857 -1.3545 -1.7545
  125OSM    C6S13240   5.923   6.618   3.458 -0.0669 -0.2537 -0.3745
  125OSM    H6S13241   5.856   6.706   3.455 -2.7544 -2.1112  1.2456
  125OSM    H6T13242   6.029   6.652   3.457 -0.5498  1.3649  0.1452
  125OSM    C7S13243   5.886   6.559   3.597 -0.4476  0.2680 -0.2188
  125OSM    H7S13244   5.940   6.465   3.620  2.2214  1.9078  0.6924
  125OSM    H7T13245   5.779   6.535   3.613 -0.3072  0.6905  1.6169
  125OSM    C8S13246   5.926   6.649   3.711  0.1312  0.5052 -1.0442
  125OSM    H8S13247   6.019   6.700   3.675  1.4268 -0.4858  0.7779
  125OSM    H8T13248   5.949   6.585   3.798 -0.3424  0.0046 -1.2877
  125OSM    C9S13249   5.828   6.758   3.752 -0.4038 -0.0935  1.1662
  125OSM    H9S13250   5.729   6.709   3.747  0.3303 -1.9072  3.0398
  125OSM    H9T13251   5.838   6.840   3.677  1.0006 -1.7625 -0.5561
  125OSM   C10S13252   5.843   6.821   3.894 -0.0701 -0.5048  0.3790
  125OSM   H10S13253   5.756   6.888   3.910  0.5136  0.3272  0.1789
  125OSM   H10T13254   5.933   6.887   3.902  0.5315 -1.2319 -0.1970
  125OSM   C11S13255   5.831   6.726   4.015 -0.7478  0.1761 -0.5515
  125OSM   H11S13256   5.810   6.620   3.989  2.0364 -0.6506  0.1532
  125OSM   H11T13257   5.751   6.772   4.076  1.4781  2.1524  1.0410
  125OSM   C12S13258   5.958   6.730   4.097  0.0066  0.1377 -0.2755
  125OSM   H12S13259   6.049   6.725   4.034  1.1896 -1.4173  1.4545
  125OSM   H12T13260   5.965   6.638   4.158 -0.0259  0.0862 -0.3498
  125OSM   C13S13261   5.973   6.856   4.182 -0.5180  0.1197 -0.0923
  125OSM   H13S13262   5.977   6.949   4.122 -3.3857 -1.0449 -2.3164
  125OSM   H13T13263   6.074   6.852   4.228 -0.5935 -0.5258  0.0241
  125OSM   C14S13264   5.883   6.865   4.306 -0.6034 -0.7142  0.3218
  125OSM   H14S13265   5.775   6.865   4.279 -0.5797 -0.1202  0.2078
  125OSM   H14T13266   5.901   6.964   4.354  1.3627 -0.2303 -1.2907
  125OSM   C15S13267   5.913   6.776   4.423 -0.5459  0.2335 -0.6307
  125OSM   H15S13268   6.018   6.784   4.457 -0.5145 -2.6354  0.2289
  125OSM   H15T13269   5.902   6.672   4.384  1.5730 -0.4908  0.5648
  125OSM   C16S13270   5.821   6.793   4.546 -0.0256  0.0179  0.2482
  125OSM   H16S13271   5.715   6.773   4.517 -0.0183  0.4162 -0.0682
  125OSM   H16T13272   5.824   6.902   4.568  0.5261  0.1798 -0.5914
  125OSM   C17S13273   5.855   6.701   4.663  0.6056  0.3511 -0.3834
  125OSM   H17S13274   5.960   6.726   4.687  0.0543 -0.4312  3.5131
  125OSM   H17T13275   5.856   6.594   4.633 -1.6832  0.7337 -2.0554
  125OSM   C18S13276   5.765   6.724   4.786 -0.3377 -0.5680  0.2439
  125OSM   H18S13277   5.782   6.827   4.824  1.0732 -0.1825 -1.2830
  125OSM   H18T13278   5.778   6.658   4.874 -0.8102  1.0247  1.5758
  125OSM   H18U13279   5.660   6.724   4.751 -0.4526  2.1338  0.3600
  125OSM    C1F13280   6.195   6.162   3.199  0.4273 -0.6959 -0.0049
  125OSM     OF13281   6.266   6.198   3.108  0.1209 -0.3796 -0.6308
  125OSM    C2F13282   6.256   6.088   3.317 -0.2120 -0.3023  0.0219
  125OSM    H2F13283   6.244   5.978   3.306  1.2585 -0.3641 -1.4102
  125OSM    H2G13284   6.203   6.127   3.406 -2.9367  0.7242 -1.8932
  125OSM    C3F13285   6.406   6.136   3.332 -0.2029  0.7709 -0.3622
  125OSM    H3F13286   6.408   6.247   3.331 -0.1390  0.7681 -0.8170
  125OSM    H3G13287   6.457   6.088   3.245  1.8040 -1.1947  1.7626
  125OSM    C4F13288   6.453   6.085   3.470  0.1599  0.4707  0.7562
  125OSM    H4F13289   6.562   6.065   3.462 -0.0687 -0.1405 -1.3319
  125OSM    H4G13290   6.410   5.983   3.482 -1.6403  1.0514 -0.3586
  125OSM    C5F13291   6.422   6.180   3.592 -0.1786  0.3484 -0.4487
  125OSM    H5F13292   6.312   6.188   3.589 -0.2086  1.0509  1.4971
  125OSM    H5G13293   6.477   6.276   3.579  0.7852 -0.0912  0.1959
  125OSM    C6F13294   6.466   6.105   3.721  0.2766  0.5985 -0.4923
  125OSM    H6F13295   6.576   6.094   3.708  0.2555 -0.0096 -0.1957
  125OSM    H6G13296   6.415   6.006   3.728  0.9902  0.2626  0.1793
  125OSM    C7F13297   6.433   6.187   3.848 -0.7902  0.4069 -0.1259
  125OSM    H7F13298   6.322   6.196   3.857 -0.6181  1.9287  0.8453
  125OSM    H7G13299   6.484   6.284   3.831 -0.6212  1.0768  3.4669
  125OSM    C8F13300   6.476   6.117   3.979  0.3644  0.2301 -0.0023
  125OSM    H8F13301   6.586   6.107   3.982  0.2224 -1.5663  0.2185
  125OSM    H8G13302   6.431   6.016   3.984 -0.4250  0.5405 -0.5828
  125OSM    C9F13303   6.425   6.205   4.094 -0.5051  0.0818  0.2441
  125OSM    H9F13304   6.346   6.274   4.061 -0.0585  0.0075 -1.0404
  125OSM   C10F13305   6.472   6.203   4.221 -0.3621 -0.3723  1.1588
  125OSM   H10F13306   6.418   6.252   4.304 -1.0013  1.3275 -0.1969
  125OSM   C11F13307   6.583   6.118   4.268 -0.8279  0.4846  0.4842
  125OSM   H11F13308   6.658   6.183   4.318  0.8417 -0.8497 -0.1795
  125OSM   H11G13309   6.621   6.051   4.188 -2.5402 -0.3965  0.3630
  125OSM   C12F13310   6.552   6.022   4.387 -0.1705 -0.5238  0.7584
  125OSM   H12F13311   6.647   5.965   4.396 -0.6615 -1.5915 -0.5081
  125OSM   H12G13312   6.464   5.961   4.359 -0.7581  0.6046  0.0927
  125OSM   C13F13313   6.502   6.095   4.516 -0.3117 -0.0532 -0.1251
  125OSM   H13F13314   6.467   6.014   4.584 -1.6024 -0.0525 -0.7602
  125OSM   H13G13315   6.418   6.165   4.499 -1.6213 -1.8462 -1.4691
  125OSM   C14F13316   6.619   6.175   4.596 -0.1015  0.7172  0.1113
  125OSM   H14F13317   6.656   6.241   4.515  0.3618  0.6885  0.2955
  125OSM   H14G13318   6.705   6.110   4.623 -1.2279 -1.2339 -0.7284
  125OSM   C15F13319   6.572   6.231   4.726  1.1980 -0.6870 -0.6946
  125OSM   H15F13320   6.549   6.148   4.797  1.8072  0.5767  1.0504
  125OSM   H15G13321   6.472   6.279   4.715  0.5152 -1.7268  0.5906
  125OSM   C16F13322   6.676   6.310   4.802  0.8056  0.6151  0.0138
  125OSM   H16F13323   6.684   6.401   4.738 -0.8418  0.9178  0.1900
  125OSM   H16G13324   6.770   6.251   4.795  0.5074  0.0666  0.6062
  125OSM   C17F13325   6.651   6.343   4.952 -0.2231  0.5745 -0.5470
  125OSM   H17F13326   6.573   6.422   4.959 -0.9570 -0.1755 -0.0900
  125OSM   H17G13327   6.747   6.385   4.989  0.6290 -0.2455 -1.7404
  125OSM   C18F13328   6.616   6.231   5.049 -0.2221  0.1745 -0.2992
  125OSM   H18F13329   6.693   6.151   5.050  0.8308  1.1432  1.6937
  125OSM   H18G13330   6.513   6.193   5.033 -0.6822  0.1899  2.2913
  125OSM   H18H13331   6.616   6.261   5.156 -1.9732 -1.5646  0.2463
  126OSM      N13332   5.554   6.062   2.955 -0.3092 -0.1261  0.2615
  126OSM    C1513333   5.581   6.148   2.838 -0.1230 -0.1830 -0.5861
  126OSM   H15A13334   5.611   6.100   2.745  0.1739 -0.2024 -0.4797
  126OSM   H15B13335   5.666   6.208   2.866 -0.3266 -0.3282  0.3662
  126OSM   H15C13336   5.498   6.207   2.803  1.2332  2.7289  0.7927
  126OSM    C1413337   5.541   6.139   3.081  0.0949 -0.1278  0.0632
  126OSM   H14A13338   5.456   6.205   3.070  0.1479 -0.4923 -3.7995
  126OSM   H14B13339   5.625   6.205   3.097 -0.2439  0.7210 -1.4988
  126OSM   H14C13340   5.530   6.074   3.167  0.6276  1.5475  1.4585
  126OSM    C1313341   5.424   5.996   2.921 -0.8047 -0.0847 -0.5097
  126OSM   H13A13342   5.343   6.065   2.904 -0.7995  0.2618  0.8269
  126OSM   H13B13343   5.398   5.921   2.994 -0.5953 -0.3567 -0.7101
  126OSM   H13C13344   5.443   5.939   2.830 -0.7478 -0.5351 -0.2186
  126OSM    C1213345   5.660   5.954   2.961 -0.1551  0.2908  0.1854
  126OSM   H12A13346   5.749   6.007   2.989  0.4814  1.5152 -3.5365
  126OSM   H12B13347   5.684   5.922   2.861  2.3587 -2.2286  1.4754
  126OSM    C1113348   5.643   5.822   3.037 -0.7638  0.3186  0.3820
  126OSM   H11A13349   5.652   5.855   3.143 -2.0349  1.8638  0.0432
  126OSM   H11B13350   5.735   5.766   3.009 -0.8297  0.0823  0.6240
  126OSM      P13351   5.510   5.591   3.018 -0.5954  0.3449 -0.3771
  126OSM    O1313352   5.385   5.560   2.945 -0.5008  0.0812 -0.4101
  126OSM    O1413353   5.630   5.519   2.981 -0.1964 -0.6365 -0.2425
  126OSM    O1113354   5.490   5.566   3.176 -0.0509 -0.5438 -0.4871
  126OSM    O1213355   5.524   5.747   3.009 -0.3070  0.3574 -0.1313
  126OSM    C1S13356   5.365   5.614   3.233 -0.1444 -0.8056 -0.8681
  126OSM    H1S13357   5.281   5.552   3.197 -0.0483  0.0469 -2.7084
  126OSM    H1T13358   5.349   5.717   3.193 -0.0635 -0.4246  0.0595
  126OSM     NF13359   5.232   5.630   3.442 -0.2226  0.4369 -0.0167
  126OSM    HNF13360   5.190   5.720   3.445  0.1292  0.6156 -0.4204
  126OSM    C2S13361   5.371   5.628   3.392 -0.3129 -0.0287  0.9136
  126OSM    H2S13362   5.420   5.538   3.435 -0.1670 -0.8283 -0.8097
  126OSM    C3S13363   5.455   5.748   3.429 -0.4483 -0.6271  0.0209
  126OSM    H3S13364   5.420   5.840   3.377  0.4188  0.4804  1.3098
  126OSM     O313365   5.588   5.736   3.389 -0.2578  0.3614 -0.5384
  126OSM    HO313366   5.588   5.663   3.327 -0.1727 -0.1499  0.0640
  126OSM    C4S13367   5.443   5.784   3.574 -0.9674  0.4034 -0.3272
  126OSM    H4S13368   5.359   5.851   3.599 -0.4097  0.3457  1.9088
  126OSM    C5S13369   5.524   5.753   3.679 -0.3265  0.3025 -0.5121
  126OSM    H5S13370   5.619   5.703   3.656 -0.1065  0.9143 -0.9730
  126OSM    C6S13371   5.497   5.819   3.820  0.1981 -0.2098 -0.0295
  126OSM    H6S13372   5.387   5.828   3.830  0.0085  2.0957 -2.8276
  126OSM    H6T13373   5.541   5.920   3.814  1.7869 -0.7305  1.8886
  126OSM    C7S13374   5.548   5.738   3.934 -0.4902  0.8365 -0.4040
  126OSM    H7S13375   5.658   5.726   3.918 -0.4006  2.3027 -0.9949
  126OSM    H7T13376   5.512   5.633   3.946  0.3560  0.5601 -0.1386
  126OSM    C8S13377   5.525   5.800   4.073  0.1812 -0.1054  0.3544
  126OSM    H8S13378   5.423   5.768   4.102 -0.5890  0.5967 -1.4489
  126OSM    H8T13379   5.547   5.908   4.069  0.0761 -0.0920  0.1829
  126OSM    C9S13380   5.627   5.741   4.174  0.4717 -0.5676 -0.3113
  126OSM    H9S13381   5.728   5.772   4.141  1.5124  0.6083  3.4749
  126OSM    H9T13382   5.643   5.631   4.178  0.6719 -0.5367 -0.2359
  126OSM   C10S13383   5.620   5.789   4.317 -0.1370 -0.0298 -0.7608
  126OSM   H10S13384   5.623   5.900   4.322  1.2785 -0.0601  3.8260
  126OSM   H10T13385   5.701   5.742   4.377  0.5428 -0.9159 -2.3187
  126OSM   C11S13386   5.488   5.737   4.384  0.0946 -0.2810  0.9100
  126OSM   H11S13387   5.509   5.631   4.409  1.2671 -0.2071  0.3101
  126OSM   H11T13388   5.398   5.750   4.320  0.8768  1.0907  0.0382
  126OSM   C12S13389   5.450   5.801   4.514 -0.1330 -0.6991 -0.3010
  126OSM   H12S13390   5.343   5.787   4.540 -1.0667  2.6963 -1.7616
  126OSM   H12T13391   5.449   5.912   4.515 -2.4690 -0.6735 -0.1502
  126OSM   C13S13392   5.552   5.763   4.628 -0.7136  0.1555  0.3900
  126OSM   H13S13393   5.657   5.765   4.593 -0.4957  1.2027  1.0329
  126OSM   H13T13394   5.535   5.662   4.670 -0.4289 -0.1693 -0.2671
  126OSM   C14S13395   5.546   5.856   4.754  0.5569  0.1967 -0.4114
  126OSM   H14S13396   5.574   5.960   4.727  3.0403 -0.4734 -0.6116
  126OSM   H14T13397   5.625   5.828   4.826  0.6354  1.0591 -0.1462
  126OSM   C15S13398   5.404   5.849   4.826 -0.2913  0.5273 -0.0356
  126OSM   H15S13399   5.387   5.741   4.844  0.1888  0.6950  1.6023
  126OSM   H15T13400   5.331   5.886   4.751  0.5027  1.2838 -0.4361
  126OSM   C16S13401   5.400   5.928   4.958 -0.1945 -0.7275 -0.6243
  126OSM   H16S13402   5.416   6.036   4.941 -0.0439 -0.7381 -0.5553
  126OSM   H16T13403   5.483   5.896   5.025 -2.2854 -3.6180  0.8197
  126OSM   C17S13404   5.272   5.910   5.039 -0.1379  0.6240  0.4115
  126OSM   H17S13405   5.240   5.805   5.053 -0.0284  0.4078 -0.8830
  126OSM   H17T13406   5.193   5.961   4.980 -1.3266 -1.8079 -0.2378
  126OSM   C18S13407   5.291   5.970   5.177 -0.0106 -0.4126  0.1628
  126OSM   H18S13408   5.198   5.990   5.235  0.2976  2.7631 -0.2089
  126OSM   H18T13409   5.338   6.067   5.150  1.2413 -1.5759 -2.1697
  126OSM   H18U13410   5.359   5.907   5.237 -1.8776 -1.4852  1.2614
  126OSM    C1F13411   5.160   5.518   3.445 -0.2913 -0.9102  0.1626
  126OSM     OF13412   5.213   5.412   3.410 -1.0621 -0.0881  0.1714
  126OSM    C2F13413   5.012   5.525   3.471  0.5046  0.5575 -0.4683
  126OSM    H2F13414   4.961   5.459   3.397 -2.7029  1.0806  1.1430
  126OSM    H2G13415   4.989   5.633   3.460  0.3137  0.7924  1.8099
  126OSM    C3F13416   4.995   5.476   3.616  0.1188 -0.4566  0.4394
  126OSM    H3F13417   5.032   5.374   3.638  0.1515 -0.1550  1.9193
  126OSM    H3G13418   4.887   5.462   3.641 -0.3472 -0.4496 -1.4163
  126OSM    C4F13419   5.050   5.575   3.722 -0.8396 -0.2317 -0.1495
  126OSM    H4F13420   4.981   5.662   3.725  1.7230  1.9595 -0.9722
  126OSM    H4G13421   5.147   5.617   3.687 -0.4901 -1.0764 -0.2454
  126OSM    C5F13422   5.067   5.506   3.860  0.5940 -0.6927 -0.9326
  126OSM    H5F13423   5.131   5.417   3.844  0.9185 -0.6048 -0.2005
  126OSM    H5G13424   4.965   5.464   3.873  0.7165 -1.2512 -1.7103
  126OSM    C6F13425   5.119   5.605   3.963 -0.4709  0.2252  0.5858
  126OSM    H6F13426   5.201   5.666   3.919  0.7214 -0.5233  1.6725
  126OSM    H6G13427   5.156   5.543   4.048 -0.1863 -1.5047 -0.7499
  126OSM    C7F13428   5.010   5.709   4.017 -0.5064 -0.4527  0.5623
  126OSM    H7F13429   4.963   5.772   3.939 -0.0840  0.2555  0.8661
  126OSM    H7G13430   5.076   5.763   4.088 -0.3305  1.5305 -1.0324
  126OSM    C8F13431   4.906   5.653   4.101 -0.5499 -0.1941  0.2408
  126OSM    H8F13432   4.957   5.577   4.164  0.2237 -0.4415 -0.6436
  126OSM    H8G13433   4.843   5.586   4.039  0.2723  0.5364 -1.4670
  126OSM    C9F13434   4.818   5.746   4.186  0.0422  0.0663 -0.0851
  126OSM    H9F13435   4.738   5.785   4.122  0.3915  0.0224 -0.5575
  126OSM   C10F13436   4.829   5.771   4.318 -0.2506  0.2404  0.4006
  126OSM   H10F13437   4.766   5.853   4.356  0.8997  1.4505 -0.2525
  126OSM   C11F13438   4.941   5.711   4.405  0.6332 -0.0572 -0.1046
  126OSM   H11F13439   5.026   5.777   4.380 -1.6681  2.2500 -2.3857
  126OSM   H11G13440   4.971   5.607   4.379  0.9808 -0.6349  2.3310
  126OSM   C12F13441   4.909   5.715   4.551 -0.5083 -0.6352  0.8697
  126OSM   H12F13442   4.879   5.815   4.589  0.2419  0.0671 -0.3097
  126OSM   H12G13443   5.000   5.680   4.604 -0.2485  0.1001  0.9243
  126OSM   C13F13444   4.785   5.628   4.580 -0.1111  0.6063  0.2971
  126OSM   H13F13445   4.820   5.523   4.584 -0.2178  0.5485 -0.1929
  126OSM   H13G13446   4.703   5.639   4.506 -1.3015 -0.1432  1.4825
  126OSM   C14F13447   4.716   5.651   4.713 -0.2744 -0.2504  0.0217
  126OSM   H14F13448   4.636   5.573   4.709  0.3418 -0.8768 -0.3125
  126OSM   H14G13449   4.663   5.748   4.724 -0.3112 -0.0889 -1.3278
  126OSM   C15F13450   4.811   5.646   4.836  1.0347 -0.5167  0.4689
  126OSM   H15F13451   4.892   5.718   4.812 -0.5249  0.3491 -2.8653
  126OSM   H15G13452   4.850   5.549   4.872  0.9450  0.0252  2.1101
  126OSM   C16F13453   4.737   5.705   4.952  0.2609  0.2481 -0.0720
  126OSM   H16F13454   4.650   5.641   4.978  0.5445 -0.8961 -1.7543
  126OSM   H16G13455   4.698   5.806   4.925 -1.1754 -0.1417  0.4541
  126OSM   C17F13456   4.822   5.726   5.075 -0.1137  0.2133  0.9848
  126OSM   H17F13457   4.883   5.637   5.100 -0.0816 -0.3604 -0.9868
  126OSM   H17G13458   4.747   5.737   5.156 -0.1401 -1.0766  1.1482
  126OSM   C18F13459   4.925   5.840   5.057 -0.4298 -0.0165 -0.4244
  126OSM   H18F13460   5.011   5.818   4.990  1.8411  2.3996  1.4718
  126OSM   H18G13461   4.974   5.859   5.155  0.7043 -1.5963 -0.6489
  126OSM   H18H13462   4.873   5.937   5.038  0.0901  0.9383  2.5532
  127OSM      N13463   0.307   0.712   2.829  0.1675  1.3610  0.0055
  127OSM    C1513464   0.391   0.805   2.898  0.2782  0.1069 -0.3735
  127OSM   H15A13465   0.369   0.907   2.871  0.5378  0.3051  0.1332
  127OSM   H15B13466   0.496   0.792   2.877  0.1561 -1.0262 -0.3589
  127OSM   H15C13467   0.370   0.794   3.004  1.8300 -0.1746 -0.0633
  127OSM    C1413468   0.330   0.702   2.679 -0.3685 -0.3323  0.5359
  127OSM   H14A13469   0.431   0.676   2.650 -1.3498 -1.3677 -2.3701
  127OSM   H14B13470   0.297   0.795   2.634 -1.7005 -1.4671 -0.9761
  127OSM   H14C13471   0.274   0.625   2.627  1.3456  0.0218 -2.0375
  127OSM    C1313472   0.349   0.567   2.871  0.2794  0.7694  0.1628
  127OSM   H13A13473   0.450   0.547   2.839 -0.2252 -1.8986  0.0228
  127OSM   H13B13474   0.274   0.494   2.845  2.4268 -1.4265 -0.2511
  127OSM   H13C13475   0.344   0.548   2.977 -2.4724  1.1687  0.1776
  127OSM    C1213476   0.160   0.741   2.851 -0.0380 -0.5723 -0.3405
  127OSM   H12A13477   0.096   0.661   2.816 -1.6060 -0.3223  1.7638
  127OSM   H12B13478   0.131   0.831   2.800  0.1524 -1.0599 -1.3293
  127OSM    C1113479   0.125   0.749   3.005  0.0850  0.1735  0.7025
  127OSM   H11A13480   0.164   0.658   3.056  0.6427 -0.6922 -1.1907
  127OSM   H11B13481   0.016   0.736   3.023  0.2826 -3.3997  0.0367
  127OSM      P13482   0.087   0.974   3.152  0.3459 -0.4943  0.0721
  127OSM    O1313483   0.157   1.102   3.173  0.3504 -0.4492  0.7106
  127OSM    O1413484  -0.050   0.978   3.091 -0.0242  0.3449 -0.3132
  127OSM    O1113485   0.072   0.908   3.293  0.1797  0.0367  0.0082
  127OSM    O1213486   0.175   0.872   3.069 -0.1959 -0.4354 -0.1755
  127OSM    C1S13487   0.203   0.877   3.355  0.4104  0.2191  0.2936
  127OSM    H1S13488   0.254   0.963   3.403  1.0693 -0.7049  1.2766
  127OSM    H1T13489   0.276   0.824   3.290 -0.6806 -1.2966  0.2498
  127OSM     NF13490   0.310   0.758   3.550  0.3021 -0.5571  0.1016
  127OSM    HNF13491   0.366   0.676   3.551  1.4148  0.1927  0.7784
  127OSM    C2S13492   0.183   0.782   3.475 -0.3929  1.2258 -0.4603
  127OSM    H2S13493   0.109   0.828   3.543 -0.8834  0.6300 -0.5906
  127OSM    C3S13494   0.122   0.648   3.417  0.6018  0.3440 -0.0006
  127OSM    H3S13495   0.199   0.608   3.348  1.1128  0.3758  0.5437
  127OSM     O313496  -0.009   0.659   3.360 -0.6592 -0.6332 -0.0502
  127OSM    HO313497  -0.011   0.749   3.325  1.1357 -0.9386 -1.0464
  127OSM    C4S13498   0.105   0.554   3.536 -0.0590 -0.6639  0.2089
  127OSM    H4S13499   0.199   0.497   3.542  0.5290  0.2299 -0.2287
  127OSM    C5S13500  -0.001   0.524   3.617  0.0569 -0.7518 -0.5223
  127OSM    H5S13501  -0.086   0.594   3.607  1.1962  0.7779  0.0147
  127OSM    C6S13502  -0.015   0.417   3.733  0.8760 -0.0492  0.1097
  127OSM    H6S13503   0.076   0.369   3.774  1.3872  1.2692  0.5880
  127OSM    H6T13504  -0.071   0.333   3.687 -1.4227  1.0048  0.8419
  127OSM    C7S13505  -0.090   0.474   3.853  0.4533 -0.2248 -1.1086
  127OSM    H7S13506  -0.112   0.396   3.929  0.0403  1.8943  1.1109
  127OSM    H7T13507  -0.182   0.516   3.807  0.3687  1.0051  0.0985
  127OSM    C8S13508   0.002   0.578   3.921  0.7503 -0.5003  0.3355
  127OSM    H8S13509  -0.063   0.668   3.929 -0.6062 -1.4172  0.0306
  127OSM    H8T13510   0.084   0.601   3.850 -0.5962 -0.6661 -1.3511
  127OSM    C9S13511   0.063   0.535   4.058  0.3502  0.2540  0.5267
  127OSM    H9S13512   0.148   0.601   4.087  0.0659  0.4493  0.9341
  127OSM    H9T13513   0.096   0.429   4.050 -0.7398  0.0383 -3.1535
  127OSM   C10S13514  -0.039   0.532   4.172  0.6971 -0.0233  0.0968
  127OSM   H10S13515  -0.133   0.478   4.149  0.2894 -0.1861  1.9385
  127OSM   H10T13516  -0.076   0.636   4.190  0.3655 -0.4632  2.2624
  127OSM   C11S13517   0.007   0.468   4.302  0.0622 -1.1987 -0.7932
  127OSM   H11S13518   0.091   0.533   4.335  0.1935  0.1537 -3.5090
  127OSM   H11T13519   0.042   0.365   4.281  1.4756 -0.6638 -1.1988
  127OSM   C12S13520  -0.100   0.459   4.416  0.4002  0.4896 -0.1548
  127OSM   H12S13521  -0.162   0.380   4.367  0.4816  0.7442 -0.6731
  127OSM   H12T13522  -0.166   0.547   4.431  0.3520  0.2936  0.8352
  127OSM   C13S13523  -0.047   0.389   4.545 -0.8534 -0.5759  0.0543
  127OSM   H13S13524   0.043   0.333   4.513 -0.0552  1.3285 -1.2051
  127OSM   H13T13525  -0.117   0.316   4.592 -1.0274 -0.1378  0.4803
  127OSM   C14S13526  -0.002   0.493   4.651 -0.0145  0.4863  0.1828
  127OSM   H14S13527  -0.059   0.585   4.625 -1.4719 -0.9482 -2.1282
  127OSM   H14T13528   0.105   0.511   4.628 -0.2201  2.0992  0.3975
  127OSM   C15S13529  -0.025   0.446   4.795  0.4568 -0.1057  0.1292
  127OSM   H15S13530   0.016   0.343   4.801 -0.1782 -0.2707  2.9293
  127OSM   H15T13531  -0.136   0.450   4.796  0.4740  2.0291  2.0340
  127OSM   C16S13532   0.028   0.543   4.907 -0.1065  0.1912  0.1138
  127OSM   H16S13533  -0.018   0.644   4.900 -2.2837 -0.7613 -0.1121
  127OSM   H16T13534   0.139   0.552   4.904  0.1584 -2.5208 -1.3887
  127OSM   C17S13535  -0.013   0.493   5.042  0.7299 -0.6534 -0.1696
  127OSM   H17S13536   0.025   0.573   5.109  0.4693  1.6454 -2.5902
  127OSM   H17T13537   0.045   0.399   5.056 -0.3373 -1.5346 -1.4244
  127OSM   C18S13538  -0.160   0.466   5.066  0.1820 -0.6053  0.0385
  127OSM   H18S13539  -0.214   0.562   5.049  0.1902 -1.0586 -3.4546
  127OSM   H18T13540  -0.178   0.415   5.162 -1.6643 -1.4883 -0.7272
  127OSM   H18U13541  -0.190   0.392   4.989 -0.3928 -0.0235 -0.3059
  127OSM    C1F13542   0.352   0.856   3.624  0.2847  0.4348 -0.4043
  127OSM     OF13543   0.280   0.954   3.642 -0.1304  0.1589 -0.0640
  127OSM    C2F13544   0.480   0.850   3.695 -0.7105 -0.3953  0.9017
  127OSM    H2F13545   0.559   0.811   3.626 -1.0337 -0.0323  0.3121
  127OSM    H2G13546   0.467   0.793   3.789  0.0930  0.1084  1.3274
  127OSM    C3F13547   0.534   0.996   3.721 -0.3557  0.1903 -0.5731
  127OSM    H3F13548   0.464   1.069   3.767 -1.1535 -1.1831  0.4952
  127OSM    H3G13549   0.567   1.044   3.626  1.1833  0.6362  0.1639
  127OSM    C4F13550   0.661   1.005   3.813  0.6298  0.0136  0.2436
  127OSM    H4F13551   0.724   1.092   3.787 -1.0689  1.3137  0.2720
  127OSM    H4G13552   0.715   0.910   3.795 -0.9564 -1.3821  2.2651
  127OSM    C5F13553   0.620   1.007   3.966  0.8901 -0.6994  0.7534
  127OSM    H5F13554   0.697   0.970   4.037  1.0694  0.5588  1.2290
  127OSM    H5G13555   0.536   0.935   3.956 -0.8835  1.4103 -0.3667
  127OSM    C6F13556   0.558   1.142   4.008  0.0444  0.8256 -1.1911
  127OSM    H6F13557   0.459   1.162   3.963 -1.4078 -1.7352  0.5593
  127OSM    H6G13558   0.629   1.226   3.993  1.1745 -0.2573 -2.1620
  127OSM    C7F13559   0.516   1.127   4.164 -0.7222 -0.3799  0.1041
  127OSM    H7F13560   0.598   1.076   4.219  0.2301 -1.1559 -1.9251
  127OSM    H7G13561   0.430   1.058   4.173  0.9889 -2.5387  0.8796
  127OSM    C8F13562   0.467   1.264   4.221  0.8806 -0.0289  0.0683
  127OSM    H8F13563   0.415   1.225   4.312 -0.5480 -1.7098 -1.3846
  127OSM    H8G13564   0.387   1.296   4.150 -0.4285  1.7939  2.2346
  127OSM    C9F13565   0.581   1.359   4.238 -0.0563  0.9124 -0.1197
  127OSM    H9F13566   0.617   1.401   4.143 -1.5628  2.7827  0.0680
  127OSM   C10F13567   0.636   1.381   4.358 -0.6047 -0.4311  0.5183
  127OSM   H10F13568   0.714   1.457   4.370 -0.7748  0.3371 -2.3817
  127OSM   C11F13569   0.596   1.336   4.495 -0.7913  0.4255  0.3538
  127OSM   H11F13570   0.687   1.304   4.550 -0.5106  1.0212  0.2434
  127OSM   H11G13571   0.542   1.239   4.494  0.3306 -0.2153 -1.2412
  127OSM   C12F13572   0.510   1.443   4.568  0.2266  0.7974  0.0644
  127OSM   H12F13573   0.417   1.463   4.510 -0.6210 -1.0569  0.7107
  127OSM   H12G13574   0.568   1.538   4.571 -0.7911  1.4178  2.2728
  127OSM   C13F13575   0.468   1.388   4.709  0.1862 -0.1023  0.6506
  127OSM   H13F13576   0.407   1.296   4.695 -0.7143  0.7985 -2.1352
  127OSM   H13G13577   0.407   1.460   4.767 -0.0272  0.6078 -0.4212
  127OSM   C14F13578   0.585   1.348   4.802  0.3780 -0.5521  0.6974
  127OSM   H14F13579   0.659   1.431   4.801 -2.2255  1.9325 -0.6981
  127OSM   H14G13580   0.635   1.263   4.751  0.5790 -0.3467  0.5473
  127OSM   C15F13581   0.531   1.306   4.939  0.4339  0.0544  0.2939
  127OSM   H15F13582   0.618   1.255   4.987  1.2443  0.0664 -1.1154
  127OSM   H15G13583   0.467   1.216   4.922  1.0005 -0.4970  1.0203
  127OSM   C16F13584   0.468   1.414   5.026  0.1854  0.2240 -1.6220
  127OSM   H16F13585   0.365   1.434   4.989  1.0352  1.5228 -3.4194
  127OSM   H16G13586   0.511   1.515   5.014  2.3575 -0.0715  2.0097
  127OSM   C17F13587   0.454   1.384   5.178  0.0677  0.4450 -0.5952
  127OSM   H17F13588   0.546   1.419   5.229  0.0411  0.1510 -0.3388
  127OSM   H17G13589   0.450   1.273   5.179 -0.2048  0.4278 -1.9969
  127OSM   C18F13590   0.324   1.434   5.251 -0.4604 -0.3370  0.0576
  127OSM   H18F13591   0.230   1.411   5.197 -1.0712  2.1642 -0.0583
  127OSM   H18G13592   0.329   1.545   5.249 -0.3301 -0.3448 -0.0627
  127OSM   H18H13593   0.326   1.406   5.359 -0.3530  0.2724  0.2141
  128OSM      N13594   5.871   0.271   2.473 -0.1192 -0.8286  0.5869
  128OSM    C1513595   5.938   0.138   2.450  1.1111 -0.1831 -0.3964
  128OSM   H15A13596   6.039   0.137   2.490  0.7327 -1.7072  0.6116
  128OSM   H15B13597   5.939   0.111   2.345 -0.8766  0.0201 -0.4995
  128OSM   H15C13598   5.879   0.059   2.493 -0.5842  0.0835 -2.0826
  128OSM    C1413599   5.952   0.382   2.413 -0.1429  0.1394  0.6792
  128OSM   H14A13600   5.952   0.376   2.305  1.2064  0.8004  0.6166
  128OSM   H14B13601   6.053   0.391   2.452  0.0593  2.3468 -0.1834
  128OSM   H14C13602   5.904   0.477   2.432 -0.1690  0.9634 -2.7306
  128OSM    C1313603   5.746   0.265   2.390  0.3979 -0.6804  0.3436
  128OSM   H13A13604   5.727   0.171   2.339 -0.0801  0.3112 -1.4071
  128OSM   H13B13605   5.757   0.343   2.316  0.0015 -0.3188  0.6692
  128OSM   H13C13606   5.661   0.301   2.445  0.5932  0.2961  0.0273
  128OSM    C1213607   5.829   0.291   2.617  0.0501 -0.2591  0.5464
  128OSM   H12A13608   5.764   0.208   2.640  0.6505 -0.3653  1.9793
  128OSM   H12B13609   5.774   0.383   2.630 -0.4781 -0.6734  1.3125
  128OSM    C1113610   5.937   0.295   2.730  0.4248 -0.2135  0.1032
  128OSM   H11A13611   5.880   0.321   2.822  0.1644 -0.0020 -0.1165
  128OSM   H11B13612   6.003   0.384   2.719 -0.4684  0.6511  1.3721
  128OSM      P13613   6.167   0.167   2.718 -0.3329  0.0422  0.3759
  128OSM    O1313614   6.213   0.052   2.639  0.6188  0.0501 -0.0432
  128OSM    O1413615   6.215   0.305   2.677  0.1161  0.6070 -0.3395
  128OSM    O1113616   6.227   0.140   2.869 -0.3193 -0.6222  0.7029
  128OSM    O1213617   6.008   0.171   2.742  0.2066  0.3811  0.0854
  128OSM    C1S13618   6.209   0.226   2.977 -0.8533  0.1587  0.4656
  128OSM    H1S13619   6.112   0.281   2.978 -0.0883  1.6068 -0.4858
  128OSM    H1T13620   6.298   0.291   2.964 -1.1021  0.3124 -0.6540
  128OSM     NF13621   6.238   0.249   3.221  0.3466  0.2883  0.3476
  128OSM    HNF13622   6.328   0.274   3.256  1.6906 -3.9868  0.5628
  128OSM    C2S13623   6.237   0.149   3.110  0.2843  0.0670  0.1984
  128OSM    H2S13624   6.159   0.072   3.126  0.4873 -0.0198  0.8142
  128OSM    C3S13625   6.377   0.075   3.108  0.1120 -0.1996 -0.2377
  128OSM    H3S13626   6.460   0.148   3.110  0.2158 -0.2963 -0.8211
  128OSM     O313627   6.405   0.002   2.988 -0.1613 -0.1145 -0.2385
  128OSM    HO313628   6.343   0.040   2.925  0.7233 -0.9853 -1.6719
  128OSM    C4S13629   6.379  -0.002   3.236  0.4147 -0.1111  0.0909
  128OSM    H4S13630   6.392   0.061   3.325 -0.2631 -1.7306  1.3869
  128OSM    C5S13631   6.342  -0.134   3.251  0.0092 -0.1837  0.5603
  128OSM    H5S13632   6.311  -0.189   3.162 -1.2920  1.7023 -0.2060
  128OSM    C6S13633   6.341  -0.210   3.383 -0.2214  0.1158  0.3515
  128OSM    H6S13634   6.430  -0.276   3.389  0.3588  0.5763 -1.9345
  128OSM    H6T13635   6.252  -0.271   3.408 -0.1272 -0.1524  0.0348
  128OSM    C7S13636   6.355  -0.118   3.510 -0.0906  0.4472 -0.0869
  128OSM    H7S13637   6.265  -0.054   3.524 -0.8562 -0.4914 -0.5810
  128OSM    H7T13638   6.446  -0.055   3.503 -0.8768  1.6176 -0.2374
  128OSM    C8S13639   6.357  -0.203   3.636 -0.3816 -0.5038  0.2422
  128OSM    H8S13640   6.440  -0.276   3.647 -0.5061 -0.6244  0.4112
  128OSM    H8T13641   6.256  -0.251   3.642 -0.8620  0.1025 -2.0502
  128OSM    C9S13642   6.347  -0.124   3.767 -0.1639  0.0640 -1.4119
  128OSM    H9S13643   6.248  -0.074   3.774  0.9539  2.1522  2.6997
  128OSM    H9T13644   6.427  -0.047   3.773  0.8567 -1.0589  1.0730
  128OSM   C10S13645   6.357  -0.216   3.887 -0.4700  0.6123  0.0689
  128OSM   H10S13646   6.462  -0.254   3.886 -0.3881  0.8014  0.8854
  128OSM   H10T13647   6.286  -0.301   3.889 -1.0799  1.1158  2.1460
  128OSM   C11S13648   6.341  -0.139   4.022  0.0393  0.0749 -0.0088
  128OSM   H11S13649   6.242  -0.088   4.025  1.3786  2.7857  1.1176
  128OSM   H11T13650   6.424  -0.066   4.024  1.2276 -1.2442  0.5346
  128OSM   C12S13651   6.340  -0.220   4.147 -0.2326 -0.1667  0.0463
  128OSM   H12S13652   6.446  -0.254   4.155 -0.2802 -0.7118 -1.3644
  128OSM   H12T13653   6.277  -0.311   4.141  1.1652 -1.1402 -0.6084
  128OSM   C13S13654   6.314  -0.144   4.274  0.3120 -0.2907 -0.4522
  128OSM   H13S13655   6.213  -0.098   4.278  0.0532 -0.2931 -4.0433
  128OSM   H13T13656   6.384  -0.058   4.273 -1.2354  1.0066 -0.2419
  128OSM   C14S13657   6.328  -0.244   4.394 -0.2559 -0.2604 -0.3194
  128OSM   H14S13658   6.437  -0.261   4.410 -0.4558 -0.4964  0.8827
  128OSM   H14T13659   6.281  -0.334   4.349  1.5871 -2.6349  2.2315
  128OSM   C15S13660   6.263  -0.200   4.526 -0.1050 -0.0615 -0.2288
  128OSM   H15S13661   6.153  -0.201   4.510 -0.4456  1.0036  1.7541
  128OSM   H15T13662   6.287  -0.094   4.546 -0.6268  0.1419 -0.6585
  128OSM   C16S13663   6.291  -0.281   4.656 -0.1224 -0.1521 -0.0542
  128OSM   H16S13664   6.401  -0.272   4.672 -0.1871 -1.1868  1.0779
  128OSM   H16T13665   6.268  -0.384   4.624  1.0375 -0.3164 -0.4023
  128OSM   C17S13666   6.196  -0.243   4.769 -0.0682  0.4217 -0.9586
  128OSM   H17S13667   6.093  -0.274   4.741 -1.3601  2.7022  0.8501
  128OSM   H17T13668   6.176  -0.134   4.778 -4.2409 -0.0935 -1.8637
  128OSM   C18S13669   6.229  -0.302   4.911  0.8846  0.1969  0.5837
  128OSM   H18S13670   6.182  -0.402   4.908 -0.4333  0.7751  1.2917
  128OSM   H18T13671   6.187  -0.245   4.996 -2.3273 -1.9294  0.5774
  128OSM   H18U13672   6.337  -0.319   4.928  0.8291 -0.8802 -0.0474
  128OSM    C1F13673   6.117   0.302   3.257 -0.0846  0.1752 -0.2748
  128OSM     OF13674   6.008   0.274   3.195  0.7550  0.0846  0.0413
  128OSM    C2F13675   6.121   0.399   3.372  0.5847  0.0837 -0.3308
  128OSM    H2F13676   6.077   0.494   3.334 -1.1336 -0.7563 -0.5309
  128OSM    H2G13677   6.223   0.422   3.409  0.5779 -2.0569  1.1665
  128OSM    C3F13678   6.019   0.347   3.479  0.2335  0.0378  0.0983
  128OSM    H3F13679   5.916   0.335   3.438  0.8381 -0.0855 -1.4368
  128OSM    H3G13680   6.012   0.412   3.569  1.6042 -2.5969  2.2539
  128OSM    C4F13681   6.073   0.217   3.543  0.2231 -0.1294  0.4317
  128OSM    H4F13682   6.089   0.143   3.462 -0.8591 -0.2582  0.3240
  128OSM    H4G13683   5.992   0.182   3.610 -0.8860  1.3607 -0.0618
  128OSM    C5F13684   6.201   0.236   3.624 -0.6439 -0.1542  0.3962
  128OSM    H5F13685   6.262   0.327   3.606  3.6219 -2.9263 -0.7890
  128OSM    H5G13686   6.265   0.151   3.593 -0.2964  1.0330 -2.3567
  128OSM    C6F13687   6.184   0.224   3.777  0.3127 -0.3029  0.3838
  128OSM    H6F13688   6.156   0.121   3.811  2.7743 -0.6226  1.6651
  128OSM    H6G13689   6.117   0.304   3.814  3.2204  2.3195  0.3814
  128OSM    C7F13690   6.314   0.257   3.856  0.1669  0.1243  0.6296
  128OSM    H7F13691   6.354   0.353   3.817  1.0522  0.1647  1.5985
  128OSM    H7G13692   6.376   0.173   3.819  0.3420  1.0096 -1.1913
  128OSM    C8F13693   6.313   0.254   4.012  0.4200  0.7308  0.0504
  128OSM    H8F13694   6.412   0.214   4.041 -0.0709 -1.1981 -0.8160
  128OSM    H8G13695   6.239   0.179   4.048 -0.9453  1.9028 -0.2020
  128OSM    C9F13696   6.288   0.389   4.075  0.1010  0.2842 -0.6691
  128OSM    H9F13697   6.302   0.481   4.015 -1.6571  1.2501  0.3059
  128OSM   C10F13698   6.265   0.404   4.207 -0.3553  0.0760  0.2600
  128OSM   H10F13699   6.243   0.502   4.252 -0.9728 -0.8409  2.0613
  128OSM   C11F13700   6.241   0.300   4.315  0.1433  0.5830  0.1461
  128OSM   H11F13701   6.274   0.198   4.287 -2.8702  0.1308 -2.2429
  128OSM   H11G13702   6.134   0.295   4.344 -0.2204  0.1736 -1.1819
  128OSM   C12F13703   6.312   0.335   4.447 -0.1644 -0.1569  0.9269
  128OSM   H12F13704   6.292   0.442   4.472  2.7298  0.5231  0.7158
  128OSM   H12G13705   6.422   0.323   4.434 -0.0987  1.7414 -1.0233
  128OSM   C13F13706   6.263   0.241   4.564  0.4789 -0.8365 -0.3599
  128OSM   H13F13707   6.246   0.136   4.530  0.5307 -0.3720 -1.8526
  128OSM   H13G13708   6.164   0.281   4.596  0.2469 -1.1577 -0.6612
  128OSM   C14F13709   6.361   0.244   4.682 -0.0220  0.1363 -0.4169
  128OSM   H14F13710   6.374   0.348   4.717 -2.3054  0.2664  0.1902
  128OSM   H14G13711   6.461   0.215   4.643  1.4796  1.0633  2.5060
  128OSM   C15F13712   6.317   0.154   4.806  0.4568  0.4859  0.1010
  128OSM   H15F13713   6.301   0.057   4.755  1.6203  0.6387 -0.5931
  128OSM   H15G13714   6.219   0.193   4.839  0.0455 -0.7072  0.3431
  128OSM   C16F13715   6.420   0.155   4.919 -0.6760 -0.3720 -0.2626
  128OSM   H16F13716   6.416   0.248   4.979  2.7563  1.0251 -1.8756
  128OSM   H16G13717   6.522   0.155   4.872  2.2066  0.1986  5.2071
  128OSM   C17F13718   6.401   0.032   5.012 -0.0012 -0.0971 -0.6270
  128OSM   H17F13719   6.406  -0.061   4.953  1.3454  0.2962 -1.1756
  128OSM   H17G13720   6.295   0.025   5.045  0.8504 -4.1547  1.8680
  128OSM   C18F13721   6.497   0.026   5.127 -0.4432  0.0661  0.1944
  128OSM   H18F13722   6.506   0.125   5.176 -0.2101  0.3217 -0.3651
  128OSM   H18G13723   6.598  -0.010   5.100 -1.4103 -1.2977 -1.8646
  128OSM   H18H13724   6.445  -0.043   5.198 -4.2289  1.2162 -1.2403
  129OSM      N13725   6.142   4.389   2.846  0.4128 -0.3138 -0.1683
  129OSM    C1513726   6.151   4.255   2.782  0.3547  0.1735  0.5618
  129OSM   H15A13727   6.243   4.244   2.728 -1.5532  0.8035 -3.1360
  129OSM   H15B13728   6.074   4.242   2.708  1.7839  0.0855 -0.9544
  129OSM   H15C13729   6.124   4.180   2.855 -2.4529 -1.3911 -1.8691
  129OSM    C1413730   6.131   4.511   2.755  0.2735  0.3261 -0.2900
  129OSM   H14A13731   6.092   4.603   2.796  1.3635  0.2171  1.0814
  129OSM   H14B13732   6.065   4.490   2.672 -0.5828  2.7173 -0.3178
  129OSM   H14C13733   6.231   4.530   2.719  0.1359  1.3293 -0.1826
  129OSM    C1313734   6.016   4.386   2.925 -0.1047 -0.0920  0.2456
  129OSM   H13A13735   5.999   4.479   2.977  0.5224 -0.4788  1.1674
  129OSM   H13B13736   6.010   4.311   3.002 -0.6341 -1.1628 -0.8091
  129OSM   H13C13737   5.930   4.368   2.862 -0.3201 -2.6679  1.1880
  129OSM    C1213738   6.247   4.418   2.955 -0.6325  0.0997  0.0360
  129OSM   H12A13739   6.215   4.366   3.044 -1.0578 -1.2512 -0.8553
  129OSM   H12B13740   6.249   4.522   2.983 -2.6214 -0.0789  1.0095
  129OSM    C1113741   6.396   4.379   2.930 -0.3179  0.6315 -0.0094
  129OSM   H11A13742   6.431   4.438   2.843 -0.3300  1.0157  0.2425
  129OSM   H11B13743   6.411   4.270   2.913 -1.6338  0.8002 -2.7400
  129OSM      P13744   6.435   4.324   3.183 -0.1539  0.1956  0.0893
  129OSM    O1313745   6.293   4.354   3.220  0.5466 -0.0549 -0.1607
  129OSM    O1413746   6.468   4.181   3.166  0.0085  0.5550 -0.0161
  129OSM    O1113747   6.532   4.388   3.286  0.5627 -0.5005 -0.1774
  129OSM    O1213748   6.476   4.416   3.048  0.4084 -0.2723  0.2348
  129OSM    C1S13749   6.552   4.527   3.304  0.5210 -0.2562 -0.1174
  129OSM    H1S13750   6.471   4.593   3.267  0.9155  0.4438  0.2505
  129OSM    H1T13751   6.646   4.557   3.252  0.7542 -0.9952 -0.1309
  129OSM     NF13752   6.589   4.723   3.452  0.1978 -0.2031 -0.7701
  129OSM    HNF13753   6.679   4.766   3.453  0.3843 -0.5715  0.8524
  129OSM    C2S13754   6.601   4.572   3.453  0.8519  0.7302  0.4183
  129OSM    H2S13755   6.529   4.533   3.527 -0.3733 -0.0112 -1.1256
  129OSM    C3S13756   6.741   4.515   3.494  0.0355 -0.1018  0.0801
  129OSM    H3S13757   6.818   4.556   3.425 -1.2938  1.3716 -0.5938
  129OSM     O313758   6.739   4.373   3.484 -0.2147  0.3623  0.1961
  129OSM    HO313759   6.667   4.354   3.424  0.6439 -0.2947 -0.6467
  129OSM    C4S13760   6.767   4.562   3.639 -0.2065 -0.6236  0.0719
  129OSM    H4S13761   6.813   4.660   3.660 -0.2423 -0.5141 -0.3644
  129OSM    C5S13762   6.747   4.485   3.747  0.2827 -0.5280 -0.0741
  129OSM    H5S13763   6.700   4.386   3.736  0.9448 -0.9375  0.6687
  129OSM    C6S13764   6.769   4.516   3.891  0.1039 -0.9399 -0.1564
  129OSM    H6S13765   6.803   4.430   3.952 -0.6567 -3.5201 -3.1350
  129OSM    H6T13766   6.664   4.534   3.923  0.0914 -1.4836  0.1213
  129OSM    C7S13767   6.839   4.649   3.927  0.4552  0.0021 -0.0694
  129OSM    H7S13768   6.787   4.737   3.882  1.6120  0.5776 -0.3263
  129OSM    H7T13769   6.945   4.662   3.895  0.9856  0.1719  1.6539
  129OSM    C8S13770   6.857   4.667   4.076 -0.3036 -0.2904  0.6827
  129OSM    H8S13771   6.945   4.733   4.091 -0.9580  1.1427 -1.3679
  129OSM    H8T13772   6.870   4.569   4.127 -2.2504  0.1625  2.1907
  129OSM    C9S13773   6.732   4.719   4.142 -0.1497 -0.1563  0.0530
  129OSM    H9S13774   6.642   4.671   4.098 -2.2379  1.8792  1.7606
  129OSM    H9T13775   6.735   4.829   4.122  1.7511  0.3370  2.4712
  129OSM   C10S13776   6.747   4.710   4.295 -0.4921 -0.2102  0.1088
  129OSM   H10S13777   6.836   4.775   4.313  0.1275 -0.5486 -1.5681
  129OSM   H10T13778   6.760   4.602   4.315 -1.7455 -0.8468 -2.1519
  129OSM   C11S13779   6.624   4.756   4.376  0.1956 -0.9138 -0.6602
  129OSM   H11S13780   6.543   4.686   4.348 -0.6546  0.2788 -1.3165
  129OSM   H11T13781   6.600   4.858   4.338 -0.0930 -0.2494  1.2233
  129OSM   C12S13782   6.664   4.764   4.528  0.0002  0.4568  0.1514
  129OSM   H12S13783   6.766   4.804   4.543  0.0715  0.4599 -0.3497
  129OSM   H12T13784   6.659   4.665   4.577 -1.3999  0.2006 -0.4554
  129OSM   C13S13785   6.571   4.873   4.589 -0.3534  0.2268  0.0083
  129OSM   H13S13786   6.568   4.963   4.524  1.3777  0.3407  0.0245
  129OSM   H13T13787   6.609   4.900   4.690 -2.6162 -0.5231  1.1198
  129OSM   C14S13788   6.434   4.811   4.607  0.3719 -0.4656  0.3389
  129OSM   H14S13789   6.386   4.783   4.511  1.9548 -3.6251  0.3447
  129OSM   H14T13790   6.368   4.886   4.657  0.2679 -1.5338  1.8631
  129OSM   C15S13791   6.428   4.684   4.697  0.8191 -0.2771 -0.5225
  129OSM   H15S13792   6.488   4.603   4.651 -0.5875 -0.0271 -2.9608
  129OSM   H15T13793   6.323   4.649   4.695  1.2832 -1.6779 -1.4002
  129OSM   C16S13794   6.470   4.702   4.846 -1.0815  0.2999 -0.3229
  129OSM   H16S13795   6.557   4.770   4.847 -0.0545 -0.7829 -3.7281
  129OSM   H16T13796   6.510   4.608   4.890 -1.0165 -0.0492 -1.1095
  129OSM   C17S13797   6.374   4.768   4.937  0.1134  0.5774 -0.3199
  129OSM   H17S13798   6.299   4.698   4.980 -1.7881  2.7357  0.0516
  129OSM   H17T13799   6.311   4.836   4.877 -0.4212  0.4918  0.1289
  129OSM   C18S13800   6.430   4.839   5.065 -0.0709 -0.5678  0.2656
  129OSM   H18S13801   6.490   4.928   5.036  2.3642 -1.9722  0.6833
  129OSM   H18T13802   6.488   4.776   5.135  0.5608 -0.6255 -0.2902
  129OSM   H18U13803   6.342   4.877   5.121  1.6778  0.3703  2.5210
  129OSM    C1F13804   6.470   4.781   3.469 -0.0247  0.1965  0.3507
  129OSM     OF13805   6.368   4.713   3.480  0.6862 -0.5756  0.6018
  129OSM    C2F13806   6.467   4.927   3.474 -0.2117  0.2101  0.3189
  129OSM    H2F13807   6.427   4.981   3.385  0.2628 -2.0738 -1.3997
  129OSM    H2G13808   6.566   4.973   3.495  0.3945 -0.7005 -0.4141
  129OSM    C3F13809   6.386   4.971   3.601  0.3029  0.3883  0.1111
  129OSM    H3F13810   6.283   4.937   3.577  0.7376 -1.8061  1.1560
  129OSM    H3G13811   6.382   5.081   3.621  0.9313 -0.0994  3.4539
  129OSM    C4F13812   6.440   4.902   3.732 -0.1655  0.2314 -0.2880
  129OSM    H4F13813   6.550   4.916   3.738  0.1634 -2.0381 -0.0526
  129OSM    H4G13814   6.425   4.792   3.729 -1.5311  0.3690  0.5670
  129OSM    C5F13815   6.373   4.945   3.855  0.1454 -0.2252 -0.4281
  129OSM    H5F13816   6.263   4.951   3.846 -0.3076 -0.2281  3.4318
  129OSM    H5G13817   6.391   5.053   3.874  0.0375 -0.2823  0.0169
  129OSM    C6F13818   6.412   4.867   3.981 -0.0076  0.0622  0.3398
  129OSM    H6F13819   6.522   4.846   3.979  0.0834  0.4823  0.8772
  129OSM    H6G13820   6.354   4.772   3.987 -0.4243  0.3951  1.9937
  129OSM    C7F13821   6.370   4.939   4.114 -0.2331  0.3892  0.0531
  129OSM    H7F13822   6.433   5.030   4.111  0.7838 -0.3099 -0.0398
  129OSM    H7G13823   6.402   4.885   4.205 -0.0578 -0.2635 -0.3915
  129OSM    C8F13824   6.223   4.977   4.137 -0.4760 -0.6065 -0.5033
  129OSM    H8F13825   6.180   5.062   4.081  0.7051  1.7621  1.9519
  129OSM    H8G13826   6.217   5.020   4.240  3.8554 -1.4304  0.2976
  129OSM    C9F13827   6.141   4.853   4.127 -0.2999  0.3821  0.1562
  129OSM    H9F13828   6.155   4.799   4.032 -0.3731 -1.5268  1.1884
  129OSM   C10F13829   6.046   4.832   4.213  0.6457  0.2560  0.1919
  129OSM   H10F13830   5.982   4.744   4.194  1.1956 -0.4594  1.5070
  129OSM   C11F13831   5.991   4.921   4.325  0.3441 -0.2505  0.7749
  129OSM   H11F13832   5.882   4.902   4.326  0.6985 -2.6026  0.6028
  129OSM   H11G13833   6.008   5.025   4.292  0.5268 -0.7007 -0.5910
  129OSM   C12F13834   6.038   4.897   4.470 -0.0898 -0.1386 -0.6148
  129OSM   H12F13835   6.148   4.896   4.480 -0.1693 -1.8922  0.4941
  129OSM   H12G13836   5.997   4.799   4.500  1.1963 -1.1680 -2.0337
  129OSM   C13F13837   5.977   4.992   4.572 -0.2877  0.0362 -0.2575
  129OSM   H13F13838   5.866   5.002   4.567 -0.4378 -0.9639  0.6384
  129OSM   H13G13839   6.017   5.091   4.541  1.9236  1.4112  5.6513
  129OSM   C14F13840   6.030   4.976   4.715 -0.0826  0.0029 -0.1292
  129OSM   H14F13841   6.039   5.081   4.752  1.2039  0.9771 -2.9307
  129OSM   H14G13842   6.136   4.942   4.709  0.6904  2.2502 -0.3910
  129OSM   C15F13843   5.945   4.899   4.811 -0.3862  0.0452  0.3740
  129OSM   H15F13844   5.935   4.795   4.772 -1.5505  0.6349 -0.9722
  129OSM   H15G13845   5.837   4.926   4.809 -0.6033 -0.8056 -0.1920
  129OSM   C16F13846   5.999   4.895   4.952 -0.0332 -0.1960  0.2117
  129OSM   H16F13847   6.005   4.999   4.990  1.7881 -0.5844  1.1016
  129OSM   H16G13848   6.104   4.862   4.944  0.4032  1.2037 -0.1095
  129OSM   C17F13849   5.920   4.806   5.053 -0.0998  0.0685  0.4909
  129OSM   H17F13850   5.894   4.717   4.991  1.5214  0.8413 -1.4173
  129OSM   H17G13851   5.830   4.869   5.070  1.7019  3.1681 -0.6578
  129OSM   C18F13852   5.981   4.763   5.185  0.1451  0.2705  0.1586
  129OSM   H18F13853   5.930   4.674   5.229 -1.0032  0.1101 -1.4426
  129OSM   H18G13854   5.987   4.853   5.250  2.7260  1.4601 -1.5355
  129OSM   H18H13855   6.085   4.731   5.163  0.2441  0.8558 -0.2518
  130OSM      N13856   5.988   1.576   3.006  0.4880  0.4223  0.0665
  130OSM    C1513857   5.856   1.636   2.962  0.4382  0.7673 -0.1322
  130OSM   H15A13858   5.811   1.699   3.037  0.2721 -0.4298  0.8003
  130OSM   H15B13859   5.777   1.565   2.941  2.2779 -1.6204  0.4619
  130OSM   H15C13860   5.866   1.700   2.876  1.4290  1.7196  0.6668
  130OSM    C1413861   5.956   1.434   3.055  0.0784  0.6478 -0.5957
  130OSM   H14A13862   6.042   1.383   3.097 -1.0852  0.8896  2.3791
  130OSM   H14B13863   5.926   1.376   2.969 -1.4743  0.2284  0.1948
  130OSM   H14C13864   5.876   1.436   3.127 -0.6757  0.6949 -1.4218
  130OSM    C1313865   6.077   1.553   2.884  0.1328 -0.6178  0.3500
  130OSM   H13A13866   6.028   1.499   2.804  0.3812 -1.7637  0.9537
  130OSM   H13B13867   6.168   1.499   2.905  0.4700  0.3372  1.4658
  130OSM   H13C13868   6.098   1.653   2.848  1.6295 -0.9740  0.1841
  130OSM    C1213869   6.057   1.653   3.120  0.5723 -0.6883  0.2420
  130OSM   H12A13870   5.977   1.694   3.180  1.4869  1.5749  0.0144
  130OSM   H12B13871   6.104   1.741   3.078  1.0622  0.2106  2.5147
  130OSM    C1113872   6.161   1.578   3.218 -0.2949  0.7477  0.1461
  130OSM   H11A13873   6.111   1.509   3.290  2.9592  0.7360  2.6179
  130OSM   H11B13874   6.204   1.660   3.278 -1.2810  0.7100  0.9333
  130OSM      P13875   6.386   1.592   3.068  0.5736  0.1179  0.0136
  130OSM    O1313876   6.411   1.530   2.940 -0.5888  0.4475  0.4251
  130OSM    O1413877   6.361   1.734   3.068  0.8148 -0.1611 -0.3830
  130OSM    O1113878   6.509   1.566   3.162 -0.2133 -0.3427  0.7755
  130OSM    O1213879   6.273   1.511   3.148 -0.0104 -0.3163  0.2847
  130OSM    C1S13880   6.525   1.642   3.288 -0.5076 -0.4638  0.0998
  130OSM    H1S13881   6.481   1.744   3.291  0.9031  0.1426  1.9271
  130OSM    H1T13882   6.633   1.661   3.307 -0.3038 -0.1919 -1.1922
  130OSM     NF13883   6.480   1.658   3.526  0.1131  0.3696 -0.1276
  130OSM    HNF13884   6.531   1.628   3.606  1.2525  0.1895 -0.8924
  130OSM    C2S13885   6.464   1.568   3.414  0.0819  0.0783  0.0007
  130OSM    H2S13886   6.355   1.552   3.399  0.1422 -0.3341 -0.0001
  130OSM    C3S13887   6.530   1.427   3.422  0.7316  0.3198  0.0887
  130OSM    H3S13888   6.638   1.441   3.441  0.6361  0.5200  0.4856
  130OSM     O313889   6.519   1.347   3.308 -0.2822 -0.3099 -0.1683
  130OSM    HO313890   6.489   1.409   3.241  0.2861 -0.0700 -0.2005
  130OSM    C4S13891   6.477   1.343   3.539  0.5085  0.2719  0.1892
  130OSM    H4S13892   6.538   1.352   3.630  2.0331  0.7328 -0.8279
  130OSM    C5S13893   6.372   1.253   3.545 -0.5901 -0.8230 -0.0584
  130OSM    H5S13894   6.328   1.216   3.451 -1.5872  0.6647 -0.2220
  130OSM    C6S13895   6.348   1.187   3.675 -0.3596  0.3130  0.0613
  130OSM    H6S13896   6.423   1.109   3.699 -0.4976 -0.5362 -2.0822
  130OSM    H6T13897   6.262   1.117   3.678 -0.8208  0.9035  0.9989
  130OSM    C7S13898   6.318   1.282   3.795 -0.0996  0.2500  0.0615
  130OSM    H7S13899   6.244   1.350   3.747  0.9723  0.9990 -0.5804
  130OSM    H7T13900   6.411   1.338   3.820  1.4414 -2.2089  0.1686
  130OSM    C8S13901   6.263   1.211   3.925  0.0793  0.1096  0.2275
  130OSM    H8S13902   6.342   1.146   3.971  0.8583  1.0559  0.2561
  130OSM    H8T13903   6.177   1.152   3.886  0.9972  1.2610 -3.9673
  130OSM    C9S13904   6.218   1.305   4.030  0.4476 -0.9509 -0.7266
  130OSM    H9S13905   6.119   1.349   4.007  0.1828 -0.3618  1.3388
  130OSM    H9T13906   6.286   1.392   4.042 -0.1667 -0.5762  0.1104
  130OSM   C10S13907   6.215   1.230   4.163 -0.3454 -0.4867 -0.2664
  130OSM   H10S13908   6.312   1.177   4.176 -0.9621 -1.6823 -0.4762
  130OSM   H10T13909   6.147   1.143   4.152  2.5755 -2.7298 -2.0411
  130OSM   C11S13910   6.181   1.321   4.282  0.3236  0.2214  0.0455
  130OSM   H11S13911   6.074   1.346   4.267  0.0341 -0.3152  1.1367
  130OSM   H11T13912   6.245   1.412   4.283  0.2947  0.2625  2.2822
  130OSM   C12S13913   6.185   1.259   4.419  0.4768 -0.5462 -0.4349
  130OSM   H12S13914   6.103   1.184   4.418 -1.3154  1.3185 -1.8166
  130OSM   H12T13915   6.169   1.336   4.497  1.0653  0.1387 -0.9673
  130OSM   C13S13916   6.324   1.194   4.450  0.6091 -0.4853 -0.7905
  130OSM   H13S13917   6.410   1.252   4.410  1.1840 -1.6563 -1.2878
  130OSM   H13T13918   6.329   1.094   4.403 -0.5867 -2.0162  2.0850
  130OSM   C14S13919   6.353   1.169   4.600  0.2899  0.1397  0.1591
  130OSM   H14S13920   6.440   1.099   4.602 -1.2226 -1.8169  0.0621
  130OSM   H14T13921   6.278   1.103   4.647  0.3105 -0.4483 -0.6036
  130OSM   C15S13922   6.397   1.290   4.682 -0.3065 -0.5620 -0.4660
  130OSM   H15S13923   6.326   1.372   4.660  0.7067  0.0152 -1.7020
  130OSM   H15T13924   6.491   1.336   4.646 -0.6577  0.1802 -0.4644
  130OSM   C16S13925   6.410   1.257   4.829 -0.3145 -0.8123 -0.5787
  130OSM   H16S13926   6.469   1.338   4.877 -1.5154 -1.0631  1.4213
  130OSM   H16T13927   6.472   1.168   4.854 -1.2360 -1.4234 -0.4224
  130OSM   C17S13928   6.278   1.249   4.910 -0.0511 -0.4221  0.2828
  130OSM   H17S13929   6.310   1.226   5.014 -0.5804 -1.1613  0.2930
  130OSM   H17T13930   6.210   1.168   4.878 -2.2895  1.3855  0.2300
  130OSM   C18S13931   6.194   1.376   4.912  0.0364 -0.5544 -0.0652
  130OSM   H18S13932   6.263   1.462   4.903  1.7771 -1.7970  0.8733
  130OSM   H18T13933   6.145   1.391   5.011  1.8816 -0.7734  0.9183
  130OSM   H18U13934   6.123   1.375   4.826 -0.9002  0.7881  0.6619
  130OSM    C1F13935   6.431   1.780   3.540  0.6087  0.4703 -0.3939
  130OSM     OF13936   6.328   1.814   3.482 -0.8366 -0.2180  0.2369
  130OSM    C2F13937   6.499   1.873   3.640  0.4461  0.5670 -0.6163
  130OSM    H2F13938   6.530   1.964   3.585 -0.7636  0.8204 -0.9091
  130OSM    H2G13939   6.593   1.835   3.685 -0.0899  1.0481  0.9835
  130OSM    C3F13940   6.403   1.892   3.755 -0.0368  0.7119  0.1177
  130OSM    H3F13941   6.376   1.796   3.803  1.7263  0.3597  0.4631
  130OSM    H3G13942   6.305   1.935   3.725 -1.3851 -0.5280  2.4525
  130OSM    C4F13943   6.472   1.982   3.853  0.3542  0.3861  0.0346
  130OSM    H4F13944   6.471   2.083   3.808 -1.8211  1.4849  2.3343
  130OSM    H4G13945   6.573   1.937   3.864 -0.1655 -0.9440 -0.3715
  130OSM    C5F13946   6.416   1.995   3.991 -0.2874  0.3129 -0.0528
  130OSM    H5F13947   6.363   1.904   4.026  0.3980  0.1492  0.5782
  130OSM    H5G13948   6.329   2.064   3.988 -0.0108  0.8256  2.0256
  130OSM    C6F13949   6.510   2.056   4.103  0.1327  0.2708  0.2874
  130OSM    H6F13950   6.580   1.979   4.141  0.9404  0.8395 -0.0422
  130OSM    H6G13951   6.445   2.070   4.193 -0.3095  0.6976 -0.0878
  130OSM    C7F13952   6.580   2.193   4.072  0.2294  0.6496  0.5294
  130OSM    H7F13953   6.597   2.249   4.167  0.2009  2.7361 -0.6255
  130OSM    H7G13954   6.509   2.256   4.015 -0.1012  0.3724  0.6368
  130OSM    C8F13955   6.721   2.184   4.007 -0.5053  0.3213  1.0742
  130OSM    H8F13956   6.726   2.282   3.955 -0.6336 -0.3998 -0.3618
  130OSM    H8G13957   6.725   2.105   3.929  0.9716  0.8832  0.5429
  130OSM    C9F13958   6.835   2.152   4.098  0.3717 -0.2570 -0.2824
  130OSM    H9F13959   6.867   2.047   4.106 -0.3727 -0.3390  4.4287
  130OSM   C10F13960   6.899   2.246   4.175  0.5470  0.4121 -0.1225
  130OSM   H10F13961   6.988   2.215   4.230  0.4550 -0.9337 -0.6956
  130OSM   C11F13962   6.872   2.395   4.177  0.2014  0.3508  0.4865
  130OSM   H11F13963   6.763   2.406   4.159 -0.0844  0.0069  1.8984
  130OSM   H11G13964   6.929   2.440   4.093  2.3556 -0.4754  1.4494
  130OSM   C12F13965   6.874   2.479   4.308 -0.6099  0.5628 -0.1309
  130OSM   H12F13966   6.784   2.455   4.369  0.0623 -0.1681  0.5965
  130OSM   H12G13967   6.867   2.589   4.292 -3.3749  0.3026 -1.3760
  130OSM   C13F13968   6.998   2.449   4.405 -0.4154 -0.3429  0.1593
  130OSM   H13F13969   7.083   2.491   4.349  0.3549 -0.5622  1.1411
  130OSM   H13G13970   7.011   2.338   4.405  0.6691 -0.2321 -0.8818
  130OSM   C14F13971   6.986   2.507   4.545  0.0593  0.7155 -0.1252
  130OSM   H14F13972   6.892   2.564   4.557  0.2985  1.1585 -0.3367
  130OSM   H14G13973   7.066   2.581   4.567 -0.6081  0.8743  1.9861
  130OSM   C15F13974   6.987   2.402   4.657 -0.6210  0.5562 -0.5884
  130OSM   H15F13975   6.972   2.452   4.756  1.0479  2.4180 -1.2145
  130OSM   H15G13976   7.075   2.335   4.656 -1.1237 -0.3008  2.2890
  130OSM   C16F13977   6.859   2.314   4.650  0.1187  0.7844  0.5959
  130OSM   H16F13978   6.852   2.278   4.545  1.9036 -2.1074  1.3294
  130OSM   H16G13979   6.767   2.372   4.670  0.6907  2.9311 -2.4434
  130OSM   C17F13980   6.873   2.177   4.713  0.4045  0.1793  0.2218
  130OSM   H17F13981   6.946   2.117   4.654  0.3173 -1.4348  1.6921
  130OSM   H17G13982   6.779   2.118   4.706  0.9226 -0.7765  1.0095
  130OSM   C18F13983   6.916   2.173   4.859  0.3005 -0.6029 -0.5429
  130OSM   H18F13984   6.831   2.223   4.910  0.6150  0.6737 -1.2088
  130OSM   H18G13985   7.003   2.240   4.874  1.2351 -1.6272 -1.2409
  130OSM   H18H13986   6.930   2.073   4.904  1.5505  0.1465  0.8045
  131OSM      N13987   4.714   5.944   3.209 -0.0278  0.0861  0.4423
  131OSM    C1513988   4.780   5.852   3.308 -0.6699 -0.0815  0.5817
  131OSM   H15A13989   4.702   5.832   3.379 -1.5993  1.8639  0.1779
  131OSM   H15B13990   4.857   5.912   3.355  0.8111 -0.4368 -1.2374
  131OSM   H15C13991   4.820   5.763   3.262 -1.1932 -0.5865  1.0948
  131OSM    C1413992   4.614   5.862   3.124  0.0549 -0.5118  0.0441
  131OSM   H14A13993   4.562   5.919   3.049 -1.4730 -1.1487  0.5723
  131OSM   H14B13994   4.531   5.829   3.185  0.4426 -0.5104  0.5815
  131OSM   H14C13995   4.658   5.776   3.075 -0.5334 -0.7260 -0.1219
  131OSM    C1313996   4.636   6.051   3.282 -0.3768  0.9755  0.0120
  131OSM   H13A13997   4.552   6.005   3.332 -2.3294  2.5857 -1.5919
  131OSM   H13B13998   4.585   6.116   3.212 -1.1904  0.1326 -0.1938
  131OSM   H13C13999   4.694   6.118   3.344 -0.1481 -0.8705  1.9223
  131OSM    C1214000   4.815   5.996   3.112  0.1871  0.9699 -0.4098
  131OSM   H12A14001   4.767   6.033   3.023 -1.3670  0.3402  0.1240
  131OSM   H12B14002   4.860   5.911   3.062 -3.3818  0.3009 -2.8743
  131OSM    C1114003   4.911   6.106   3.163  0.0976 -0.1561 -0.5281
  131OSM   H11A14004   4.850   6.190   3.203  2.6000  0.9792  1.1598
  131OSM   H11B14005   4.977   6.141   3.081  0.1301 -0.1776 -0.5106
  131OSM      P14006   5.138   5.995   3.238  0.2392  0.1114 -0.1601
  131OSM    O1314007   5.167   5.914   3.359 -0.0356  0.2104  0.3114
  131OSM    O1414008   5.127   5.922   3.108  0.2951  0.4113  0.0769
  131OSM    O1114009   5.244   6.113   3.230 -0.2273 -0.3149 -0.1123
  131OSM    O1214010   4.994   6.051   3.270  0.0411 -0.1729  0.0029
  131OSM    C1S14011   5.229   6.244   3.285  0.4009  0.1125  0.2787
  131OSM    H1S14012   5.120   6.266   3.291 -0.2815 -2.9508  0.7967
  131OSM    H1T14013   5.280   6.320   3.223  0.1230 -0.2281 -0.3792
  131OSM     NF14014   5.266   6.398   3.466 -0.3315 -0.5357  0.0230
  131OSM    HNF14015   5.325   6.465   3.421 -0.8562  0.4911  0.8203
  131OSM    C2S14016   5.294   6.261   3.422  0.1396  0.2375  0.0722
  131OSM    H2S14017   5.251   6.182   3.487  0.5021 -0.6502 -0.7465
  131OSM    C3S14018   5.446   6.230   3.431  0.0932 -0.1975  0.1762
  131OSM    H3S14019   5.493   6.290   3.350 -0.1043 -1.4357 -0.8908
  131OSM     O314020   5.480   6.097   3.401 -0.2015 -0.4530  0.5390
  131OSM    HO314021   5.402   6.066   3.354  1.2506 -1.2860 -1.4568
  131OSM    C4S14022   5.503   6.263   3.564 -0.0791 -0.4856 -0.1757
  131OSM    H4S14023   5.556   6.359   3.564 -0.2538 -0.3304  2.3617
  131OSM    C5S14024   5.485   6.196   3.685  0.0817  0.1901  1.2186
  131OSM    H5S14025   5.416   6.110   3.690 -0.6544  0.5300 -1.4594
  131OSM    C6S14026   5.555   6.241   3.809  0.1724  0.1798  0.1802
  131OSM    H6S14027   5.664   6.219   3.801  0.1134  0.5074 -2.2476
  131OSM    H6T14028   5.510   6.185   3.894  2.5440 -1.1477  0.6635
  131OSM    C7S14029   5.547   6.391   3.857  0.6138 -0.1644  0.3036
  131OSM    H7S14030   5.441   6.404   3.889  1.6059  1.1604  3.4241
  131OSM    H7T14031   5.581   6.456   3.773  0.0998 -1.2756 -0.8042
  131OSM    C8S14032   5.620   6.420   3.993 -0.0511  0.0714  0.1067
  131OSM    H8S14033   5.606   6.527   4.018  0.0957  0.5219 -1.6268
  131OSM    H8T14034   5.727   6.396   3.976 -0.4898 -2.4670  0.5285
  131OSM    C9S14035   5.586   6.327   4.113 -0.8545  0.7595  0.2741
  131OSM    H9S14036   5.622   6.226   4.084 -1.4119  0.8235 -0.6927
  131OSM    H9T14037   5.476   6.323   4.121 -0.9316  0.3099 -0.8404
  131OSM   C10S14038   5.652   6.375   4.243  0.1949 -0.0648  0.0453
  131OSM   H10S14039   5.612   6.478   4.261 -0.0288  0.2375 -1.9685
  131OSM   H10T14040   5.763   6.382   4.238  0.1091  0.5674 -1.8423
  131OSM   C11S14041   5.618   6.294   4.363 -0.2532 -0.4525  0.9671
  131OSM   H11S14042   5.670   6.196   4.362  0.7120  0.0489 -0.4592
  131OSM   H11T14043   5.509   6.276   4.370 -0.9714  0.9890 -3.3074
  131OSM   C12S14044   5.673   6.366   4.486  0.4876  0.3619  0.7961
  131OSM   H12S14045   5.608   6.455   4.497  2.4714  2.3767 -2.1841
  131OSM   H12T14046   5.776   6.408   4.476  0.6160  0.3345  1.9285
  131OSM   C13S14047   5.660   6.276   4.604 -0.1772 -0.3417  0.4391
  131OSM   H13S14048   5.725   6.186   4.600 -0.8398 -0.8103  0.0081
  131OSM   H13T14049   5.562   6.223   4.609 -0.1955 -0.4358 -0.6479
  131OSM   C14S14050   5.693   6.352   4.730  0.1100 -0.5494  0.5963
  131OSM   H14S14051   5.652   6.455   4.737  0.3065 -0.5597  2.3997
  131OSM   H14T14052   5.804   6.358   4.731  0.0604  2.6716 -0.5412
  131OSM   C15S14053   5.653   6.289   4.861  0.0590  0.1576 -0.0762
  131OSM   H15S14054   5.672   6.180   4.866  1.2624  0.3263 -0.6970
  131OSM   H15T14055   5.542   6.290   4.873 -0.0415 -0.3942 -0.9038
  131OSM   C16S14056   5.718   6.364   4.978  0.2653  0.5119  0.0732
  131OSM   H16S14057   5.674   6.466   4.982 -1.5822 -0.1116 -1.8439
  131OSM   H16T14058   5.826   6.383   4.966  0.3622  0.1513  0.3733
  131OSM   C17S14059   5.694   6.288   5.107  0.9893 -0.2700 -0.1340
  131OSM   H17S14060   5.746   6.350   5.183  1.0290 -0.6691  0.1693
  131OSM   H17T14061   5.745   6.193   5.081  0.0196 -0.5901 -0.9825
  131OSM   C18S14062   5.547   6.247   5.146  0.1970  0.6488  0.7640
  131OSM   H18S14063   5.486   6.331   5.185  0.5089  0.6603  1.2403
  131OSM   H18T14064   5.551   6.162   5.217 -0.8296 -1.9074 -1.9951
  131OSM   H18U14065   5.487   6.199   5.065  1.2338 -1.4430  1.1512
  131OSM    C1F14066   5.147   6.450   3.498  0.5957  0.3277  0.5856
  131OSM     OF14067   5.052   6.375   3.511 -0.3787 -0.3699  0.1419
  131OSM    C2F14068   5.135   6.595   3.510  0.2441 -0.3843 -0.0942
  131OSM    H2F14069   5.143   6.647   3.412  1.2820 -0.4186 -0.0427
  131OSM    H2G14070   5.228   6.640   3.552 -0.5742  1.8402 -0.5647
  131OSM    C3F14071   5.009   6.642   3.587  0.0253 -0.4931  0.9320
  131OSM    H3F14072   4.922   6.608   3.526  0.9924  0.7640 -1.3009
  131OSM    H3G14073   5.019   6.752   3.576  2.1050 -0.6572  0.8385
  131OSM    C4F14074   5.015   6.607   3.732  0.3801 -0.4329 -0.1364
  131OSM    H4F14075   5.119   6.615   3.771  0.6863 -0.5705 -0.8968
  131OSM    H4G14076   4.986   6.500   3.742  0.8409 -0.3876  2.1544
  131OSM    C5F14077   4.923   6.703   3.820  0.3028 -0.3224 -0.0925
  131OSM    H5F14078   4.822   6.695   3.776  1.0875 -1.3952 -1.7845
  131OSM    H5G14079   4.952   6.810   3.817 -0.0288  0.1156  4.5457
  131OSM    C6F14080   4.920   6.656   3.976  0.1264  0.2971  0.1190
  131OSM    H6F14081   5.028   6.642   3.998 -0.0195  0.5684  1.0803
  131OSM    H6G14082   4.874   6.556   3.991 -0.6391  0.7039  0.5777
  131OSM    C7F14083   4.849   6.748   4.071  0.3261 -0.1942 -0.2329
  131OSM    H7F14084   4.740   6.734   4.055  0.1932 -2.4869  2.0535
  131OSM    H7G14085   4.884   6.852   4.053 -0.9619  0.7488  2.2488
  131OSM    C8F14086   4.887   6.721   4.217 -0.3644  0.4361 -0.8345
  131OSM    H8F14087   4.998   6.722   4.222 -0.2976 -2.0292 -0.4364
  131OSM    H8G14088   4.863   6.613   4.227 -1.0103  0.3195 -3.1274
  131OSM    C9F14089   4.823   6.819   4.317 -0.6133  0.1841 -0.2223
  131OSM    H9F14090   4.718   6.848   4.301 -1.1884 -0.0139  2.6830
  131OSM   C10F14091   4.873   6.865   4.438  0.1764  0.1457  0.1018
  131OSM   H10F14092   4.803   6.918   4.504  2.8720  2.6258  1.1825
  131OSM   C11F14093   5.003   6.823   4.504 -0.0675 -0.0602 -0.7664
  131OSM   H11F14094   5.084   6.898   4.496  0.3363 -0.4892 -0.6907
  131OSM   H11G14095   5.039   6.728   4.460  1.8216  0.1875  0.1468
  131OSM   C12F14096   4.981   6.777   4.650 -0.1906  0.9147  0.0411
  131OSM   H12F14097   5.059   6.700   4.669 -0.4521  0.9541  1.3303
  131OSM   H12G14098   4.887   6.719   4.651  0.5095 -0.2921 -1.0646
  131OSM   C13F14099   4.979   6.882   4.759  0.0726 -0.6989 -0.1013
  131OSM   H13F14100   4.901   6.957   4.732 -1.4828 -2.0491  0.4841
  131OSM   H13G14101   5.078   6.933   4.759 -0.6644  0.8169  0.8967
  131OSM   C14F14102   4.966   6.834   4.904 -0.8476 -0.6160  0.6416
  131OSM   H14F14103   5.044   6.758   4.927 -0.9118 -0.2272  2.3230
  131OSM   H14G14104   4.868   6.782   4.901 -2.0122  1.5126 -0.2136
  131OSM   C15F14105   4.964   6.932   5.017  0.2371  0.4357 -0.3702
  131OSM   H15F14106   4.886   7.011   5.006  1.3663  1.7115  0.4679
  131OSM   H15G14107   5.063   6.980   5.027 -0.0926  0.8930  1.0670
  131OSM   C16F14108   4.942   6.856   5.156 -0.4044  0.7184 -0.2616
  131OSM   H16F14109   5.008   6.768   5.172 -2.3716 -0.4992  1.8492
  131OSM   H16G14110   4.844   6.804   5.156 -0.4437  0.7623  0.9951
  131OSM   C17F14111   4.974   6.940   5.274 -1.0014  0.1552 -0.3796
  131OSM   H17F14112   5.064   6.999   5.245 -1.0641  0.7428  0.5650
  131OSM   H17G14113   5.003   6.881   5.364 -2.1898 -0.2302 -0.2239
  131OSM   C18F14114   4.867   7.039   5.322 -0.5829  0.3706 -0.5847
  131OSM   H18F14115   4.800   6.975   5.382  0.3213 -0.0543 -0.0006
  131OSM   H18G14116   4.820   7.089   5.235 -2.5517 -0.1312  0.1425
  131OSM   H18H14117   4.922   7.115   5.382 -0.2635  0.9665 -1.6091
  132OSM      N14118   3.183   5.110   2.912  0.7975  0.8108  0.2447
  132OSM    C1514119   3.300   5.082   2.821 -0.0007  0.1110 -0.8341
  132OSM   H15A14120   3.365   5.014   2.874  1.3709 -0.1074 -2.7080
  132OSM   H15B14121   3.366   5.167   2.810  0.9427 -0.5263 -0.2154
  132OSM   H15C14122   3.277   5.041   2.724 -1.4222 -2.4481  0.4575
  132OSM    C1414123   3.085   5.204   2.838  0.5139  0.0832 -0.6125
  132OSM   H14A14124   3.008   5.233   2.909  0.1302 -0.3000 -0.8676
  132OSM   H14B14125   3.035   5.146   2.762  0.6106  0.5881 -1.0613
  132OSM   H14C14126   3.136   5.285   2.788  1.2256  0.2642  0.3791
  132OSM    C1314127   3.114   4.977   2.938  0.2497  0.4452  0.1079
  132OSM   H13A14128   3.104   4.915   2.850 -0.5676  1.6786 -0.6954
  132OSM   H13B14129   3.020   5.002   2.985  0.4614 -0.4293  1.0263
  132OSM   H13C14130   3.183   4.925   3.003  1.2261  0.9043 -0.5433
  132OSM    C1214131   3.229   5.169   3.048 -1.1978 -0.4121 -0.2880
  132OSM   H12A14132   3.258   5.270   3.025 -2.7057  0.3242  0.8759
  132OSM   H12B14133   3.316   5.114   3.078 -1.2986 -1.2552 -1.4579
  132OSM    C1114134   3.127   5.177   3.162 -0.3238  0.5859 -0.7024
  132OSM   H11A14135   3.170   5.235   3.246 -0.3262 -1.5138  0.8102
  132OSM   H11B14136   3.104   5.074   3.196 -1.8941  1.2787  0.4674
  132OSM      P14137   2.867   5.197   3.151 -0.4118  0.0058  0.0607
  132OSM    O1314138   2.766   5.285   3.091  0.2452 -0.3040  0.2135
  132OSM    O1414139   2.860   5.051   3.121 -0.3625 -0.2186  0.5550
  132OSM    O1114140   2.864   5.207   3.304 -0.5578  0.9723  0.2185
  132OSM    O1214141   3.008   5.249   3.120  0.6058 -0.7271 -0.1417
  132OSM    C1S14142   2.829   5.325   3.367  0.1093  0.0408  0.6033
  132OSM    H1S14143   2.728   5.357   3.332  0.4748 -0.0355 -0.5330
  132OSM    H1T14144   2.895   5.408   3.334  0.1330 -0.5910 -1.0347
  132OSM     NF14145   2.718   5.399   3.580  0.6571  0.0482  0.1518
  132OSM    HNF14146   2.764   5.485   3.604  1.9629  1.0202 -4.7055
  132OSM    C2S14147   2.820   5.317   3.521 -0.0561 -0.1096 -0.3681
  132OSM    H2S14148   2.784   5.213   3.537  0.1439 -1.0306 -4.5334
  132OSM    C3S14149   2.968   5.318   3.577  0.6281  0.5477  0.3082
  132OSM    H3S14150   3.012   5.420   3.574  4.9171 -1.1019  0.4416
  132OSM     O314151   3.059   5.231   3.503 -0.0393 -0.1052  0.1343
  132OSM    HO314152   3.000   5.202   3.432  1.2760  1.4415 -1.6787
  132OSM    C4S14153   2.968   5.278   3.723 -0.0948 -0.3570 -0.0160
  132OSM    H4S14154   2.951   5.357   3.798  0.9180 -1.2134  1.1622
  132OSM    C5S14155   2.994   5.155   3.774  0.5004  0.1937 -0.4102
  132OSM    H5S14156   3.015   5.069   3.709  3.4031 -1.0421  1.9220
  132OSM    C6S14157   2.987   5.122   3.922  0.0360 -0.4904  0.4560
  132OSM    H6S14158   3.090   5.098   3.956 -0.6263 -0.7126  2.4438
  132OSM    H6T14159   2.931   5.027   3.933 -1.0145 -0.2377 -1.8872
  132OSM    C7S14160   2.919   5.228   4.013  0.4784  0.1675 -0.1730
  132OSM    H7S14161   2.812   5.242   3.987  0.1845  2.3686  1.9122
  132OSM    H7T14162   2.968   5.325   3.989  0.4614  0.0993 -0.4891
  132OSM    C8S14163   2.922   5.195   4.163  0.1153  0.2085  0.0212
  132OSM    H8S14164   3.024   5.189   4.207 -0.9733  1.5395  2.9958
  132OSM    H8T14165   2.862   5.104   4.185  2.3199 -0.7247  2.6586
  132OSM    C9S14166   2.867   5.319   4.236 -0.2937  0.3639 -0.1584
  132OSM    H9S14167   2.764   5.334   4.196  0.0509  0.1922 -1.1416
  132OSM    H9T14168   2.931   5.409   4.217 -0.2720  1.1210  2.9377
  132OSM   C10S14169   2.844   5.306   4.390  0.4650  0.2475  0.5452
  132OSM   H10S14170   2.766   5.227   4.400  1.1769 -0.2423  2.7767
  132OSM   H10T14171   2.791   5.399   4.423  1.0350  1.2174 -1.1912
  132OSM   C11S14172   2.973   5.297   4.474 -0.3366  0.0465  0.0238
  132OSM   H11S14173   3.041   5.379   4.443 -0.1943  0.6647  1.8515
  132OSM   H11T14174   3.028   5.211   4.430  0.4328  0.6555 -0.2221
  132OSM   C12S14175   2.959   5.318   4.622 -0.6176 -0.0875 -0.0879
  132OSM   H12S14176   2.916   5.418   4.641  0.0040  0.4612 -1.4156
  132OSM   H12T14177   3.064   5.315   4.658  0.2651  0.7785 -2.4138
  132OSM   C13S14178   2.869   5.218   4.682 -0.1633  0.1147 -0.4547
  132OSM   H13S14179   2.911   5.116   4.670 -1.6102 -0.4714 -0.7029
  132OSM   H13T14180   2.772   5.203   4.631  0.1007 -0.9362 -0.6622
  132OSM   C14S14181   2.845   5.237   4.835  0.5492 -0.3289 -0.0895
  132OSM   H14S14182   2.797   5.334   4.859 -0.8054 -1.2241  0.9285
  132OSM   H14T14183   2.945   5.238   4.884 -0.3058  0.1531  1.7054
  132OSM   C15S14184   2.766   5.127   4.899  0.0633  0.3448 -0.2997
  132OSM   H15S14185   2.829   5.037   4.882  0.2129  0.7179 -1.8920
  132OSM   H15T14186   2.674   5.110   4.839  1.0792 -2.2065 -1.2619
  132OSM   C16S14187   2.727   5.150   5.044  0.3509  0.2364  0.4804
  132OSM   H16S14188   2.711   5.256   5.071  2.5311  0.8172 -0.3451
  132OSM   H16T14189   2.800   5.106   5.115 -0.4199  0.8614  1.6761
  132OSM   C17S14190   2.590   5.081   5.071 -0.8169  0.3577 -0.4875
  132OSM   H17S14191   2.589   4.975   5.039 -0.6105 -1.1682  3.8737
  132OSM   H17T14192   2.516   5.132   5.005  0.4878  0.3034 -2.0383
  132OSM   C18S14193   2.543   5.085   5.217 -0.1335 -0.5654  0.7244
  132OSM   H18S14194   2.507   5.189   5.236  2.8875  1.0778 -1.6443
  132OSM   H18T14195   2.624   5.059   5.288 -0.7049 -0.4185  1.4519
  132OSM   H18U14196   2.469   5.003   5.233  0.7457 -2.3062 -3.0311
  132OSM    C1F14197   2.589   5.384   3.546  0.2089  0.1135 -1.3341
  132OSM     OF14198   2.549   5.290   3.478 -0.8589 -0.4898 -0.5545
  132OSM    C2F14199   2.494   5.479   3.601  0.3551 -0.0507 -0.1685
  132OSM    H2F14200   2.413   5.498   3.528 -0.7047 -0.7952  0.7875
  132OSM    H2G14201   2.550   5.571   3.629  2.1711 -1.2812  0.4385
  132OSM    C3F14202   2.424   5.422   3.727  0.1053 -0.1231 -0.9117
  132OSM    H3F14203   2.384   5.319   3.722 -2.6301  0.7938  0.2260
  132OSM    H3G14204   2.335   5.484   3.752 -0.3013 -0.6069 -1.1693
  132OSM    C4F14205   2.513   5.419   3.850  0.2177 -0.5468 -0.3405
  132OSM    H4F14206   2.549   5.523   3.868 -0.2538 -0.3758 -0.3825
  132OSM    H4G14207   2.604   5.356   3.835  0.2655 -0.3283 -1.0141
  132OSM    C5F14208   2.438   5.386   3.978  0.7114 -0.4097  0.0096
  132OSM    H5F14209   2.378   5.292   3.972 -1.6903  0.8106  2.7821
  132OSM    H5G14210   2.366   5.470   3.985 -0.9838 -1.8758  0.9943
  132OSM    C6F14211   2.522   5.362   4.101  0.4135  0.3532 -0.4964
  132OSM    H6F14212   2.585   5.452   4.118  1.8304 -0.8427  0.8662
  132OSM    H6G14213   2.589   5.277   4.077  0.4378 -0.3100  1.6577
  132OSM    C7F14214   2.437   5.355   4.227 -0.1650  0.4303 -0.1052
  132OSM    H7F14215   2.331   5.387   4.220 -0.5867 -0.7950  0.2654
  132OSM    H7G14216   2.466   5.410   4.319 -0.0631 -0.9667  0.7332
  132OSM    C8F14217   2.398   5.207   4.271  0.5590  0.2522  0.1479
  132OSM    H8F14218   2.387   5.156   4.174  0.6297  0.3809  0.0712
  132OSM    H8G14219   2.298   5.200   4.319  0.0626  1.4427 -0.6727
  132OSM    C9F14220   2.504   5.140   4.356  0.5223  0.1321 -0.5167
  132OSM    H9F14221   2.604   5.128   4.312 -0.5845 -1.1669 -2.8723
  132OSM   C10F14222   2.486   5.093   4.481 -0.1950  0.0647  0.1101
  132OSM   H10F14223   2.571   5.040   4.526 -0.5218 -3.2615 -2.7756
  132OSM   C11F14224   2.365   5.076   4.570  0.7453 -0.1877 -0.1225
  132OSM   H11F14225   2.385   5.000   4.649  0.7902  1.2639  1.3081
  132OSM   H11G14226   2.271   5.046   4.517 -0.1524  1.0411  0.7162
  132OSM   C12F14227   2.325   5.202   4.650  0.1635  0.1500  0.1787
  132OSM   H12F14228   2.289   5.277   4.575  0.9805  0.5065  0.1331
  132OSM   H12G14229   2.411   5.243   4.706  0.2986  2.4545 -1.5618
  132OSM   C13F14230   2.206   5.173   4.744 -0.4946  0.1047 -0.2761
  132OSM   H13F14231   2.126   5.118   4.690 -1.3131  0.7041  0.3027
  132OSM   H13G14232   2.169   5.273   4.775 -0.2543 -0.4373  1.8994
  132OSM   C14F14233   2.252   5.105   4.868 -0.0349  0.1216  0.5083
  132OSM   H14F14234   2.350   5.148   4.898 -0.5310  1.3184  0.4832
  132OSM   H14G14235   2.274   5.005   4.825 -0.3517  0.7477 -1.1743
  132OSM   C15F14236   2.148   5.095   4.978  0.2459 -0.1191  0.2477
  132OSM   H15F14237   2.049   5.102   4.927  1.4333  4.2828 -2.0635
  132OSM   H15G14238   2.156   5.189   5.037  1.2915 -0.2734  0.3685
  132OSM   C16F14239   2.177   4.977   5.063  0.7718  0.1561  0.0278
  132OSM   H16F14240   2.277   4.995   5.109  0.2794  0.7045  0.9096
  132OSM   H16G14241   2.186   4.887   5.000 -0.2403 -0.6156  0.9484
  132OSM   C17F14242   2.074   4.952   5.175  0.6526 -0.1783 -0.1224
  132OSM   H17F14243   2.070   4.850   5.217  0.2042  0.1271  0.5904
  132OSM   H17G14244   1.977   4.973   5.125  1.3654 -0.0812 -1.5370
  132OSM   C18F14245   2.084   5.055   5.287 -0.1208  0.2172  0.1990
  132OSM   H18F14246   2.007   5.034   5.364 -1.8002  1.4220 -1.0787
  132OSM   H18G14247   2.056   5.150   5.237 -1.1593 -0.1045  0.1509
  132OSM   H18H14248   2.186   5.063   5.330  0.4941  3.2883 -1.5294
  133OSM      N14249   1.770   4.901   2.552  0.6021  0.0080 -0.2793
  133OSM    C1514250   1.717   4.819   2.438  0.0618 -0.6269  0.3814
  133OSM   H15A14251   1.802   4.787   2.379 -0.8800 -1.6263 -0.4805
  133OSM   H15B14252   1.664   4.887   2.374 -0.2358 -1.5470 -0.3692
  133OSM   H15C14253   1.650   4.737   2.461 -2.1574  1.0590  0.2634
  133OSM    C1414254   1.658   4.920   2.650  0.1454  0.6094  0.5601
  133OSM   H14A14255   1.687   4.997   2.721  0.0700  1.2646 -0.1069
  133OSM   H14B14256   1.614   4.833   2.695 -0.2754  1.0981  1.1084
  133OSM   H14C14257   1.578   4.959   2.590 -0.0200 -1.1097 -0.3937
  133OSM    C1314258   1.875   4.814   2.617  0.9594  0.7943 -0.1578
  133OSM   H13A14259   1.967   4.834   2.565  0.7823  1.2745 -0.2949
  133OSM   H13B14260   1.851   4.709   2.610 -1.7439  1.4237 -1.7884
  133OSM   H13C14261   1.874   4.831   2.724 -0.7692 -0.0659  0.0041
  133OSM    C1214262   1.830   5.033   2.509 -0.2148  0.0596  0.6698
  133OSM   H12A14263   1.751   5.091   2.465 -0.6438 -0.6455  0.4843
  133OSM   H12B14264   1.909   5.019   2.437 -1.0162  2.7539 -0.8656
  133OSM    C1114265   1.892   5.113   2.623  0.1543  0.2922 -0.2173
  133OSM   H11A14266   1.965   5.190   2.589 -1.5871  1.8895 -0.5351
  133OSM   H11B14267   1.944   5.040   2.688 -0.1105  1.2437  1.1219
  133OSM      P14268   1.702   5.297   2.658 -0.3855 -0.0477  0.2431
  133OSM    O1314269   1.789   5.413   2.616  0.2660  0.4253  0.2130
  133OSM    O1414270   1.594   5.251   2.571  0.1484 -0.2718 -0.3535
  133OSM    O1114271   1.633   5.346   2.794 -0.2502 -0.1411 -0.2188
  133OSM    O1214272   1.782   5.163   2.703 -0.2160  0.1371 -0.2001
  133OSM    C1S14273   1.711   5.423   2.891 -0.2619 -0.3922 -0.2733
  133OSM    H1S14274   1.717   5.526   2.850 -1.4761 -0.6739 -1.1985
  133OSM    H1T14275   1.810   5.380   2.918 -0.3030  1.1279  2.7974
  133OSM     NF14276   1.719   5.527   3.115 -0.0393 -0.0466  0.3402
  133OSM    HNF14277   1.786   5.484   3.175  3.2084  1.8376 -1.6680
  133OSM    C2S14278   1.643   5.431   3.029 -0.0180  0.0249 -0.1917
  133OSM    H2S14279   1.536   5.458   3.016 -0.2048 -1.6732 -2.8946
  133OSM    C3S14280   1.649   5.286   3.091 -0.9929 -0.7026 -0.5886
  133OSM    H3S14281   1.757   5.262   3.104 -0.9502 -1.2414 -1.8414
  133OSM     O314282   1.615   5.184   3.008 -0.0656 -0.0783  0.3525
  133OSM    HO314283   1.629   5.218   2.919 -0.5735  0.0101  0.3021
  133OSM    C4S14284   1.587   5.271   3.227  0.2551  0.0962  0.1819
  133OSM    H4S14285   1.486   5.314   3.235  1.0322  2.5179 -1.6126
  133OSM    C5S14286   1.648   5.220   3.337 -0.0673 -0.1557  0.1021
  133OSM    H5S14287   1.753   5.194   3.321 -0.3039 -1.3809  0.4570
  133OSM    C6S14288   1.581   5.194   3.471 -0.7739  0.6178  0.3540
  133OSM    H6S14289   1.622   5.272   3.538  0.3852 -0.0475  0.4594
  133OSM    H6T14290   1.601   5.089   3.501  1.8309  1.5618  2.2278
  133OSM    C7S14291   1.424   5.209   3.487 -0.0237  0.6965 -0.7314
  133OSM    H7S14292   1.376   5.137   3.418 -0.1348  0.0115  0.0466
  133OSM    H7T14293   1.388   5.310   3.461 -1.5368  0.4268  0.2158
  133OSM    C8S14294   1.369   5.162   3.623  0.4688 -0.1269  0.3421
  133OSM    H8S14295   1.378   5.053   3.636 -1.1162 -0.6435 -2.1217
  133OSM    H8T14296   1.258   5.167   3.619  0.4288 -1.0538  0.0980
  133OSM    C9S14297   1.415   5.246   3.743  0.7426 -0.3209 -0.3564
  133OSM    H9S14298   1.402   5.354   3.719  0.5714  0.2641  2.1328
  133OSM    H9T14299   1.522   5.228   3.769  0.7333  2.1816  1.7565
  133OSM   C10S14300   1.330   5.218   3.872  0.3081 -0.4125 -0.2895
  133OSM   H10S14301   1.223   5.191   3.858 -0.1356  0.9371  0.3283
  133OSM   H10T14302   1.326   5.320   3.916  0.2465 -1.0192  1.1669
  133OSM   C11S14303   1.393   5.132   3.977 -0.1403 -0.3655 -0.3763
  133OSM   H11S14304   1.494   5.169   4.004 -0.1317  0.6860 -1.7144
  133OSM   H11T14305   1.416   5.031   3.936 -1.8241 -0.2417 -1.7718
  133OSM   C12S14306   1.304   5.122   4.104  0.2864  0.0205  0.9396
  133OSM   H12S14307   1.351   5.034   4.152  1.3603  0.1305  0.1198
  133OSM   H12T14308   1.197   5.106   4.080  1.0450 -5.1449 -0.2205
  133OSM   C13S14309   1.307   5.225   4.207 -0.0044 -0.0291  0.4183
  133OSM   H13S14310   1.221   5.295   4.207 -0.8583 -1.0211  2.0568
  133OSM   H13T14311   1.398   5.289   4.197 -0.2641  0.2062 -0.4728
  133OSM   C14S14312   1.304   5.171   4.351 -0.2067 -0.0943 -0.8413
  133OSM   H14S14313   1.384   5.094   4.359  1.5582  1.4220 -2.9450
  133OSM   H14T14314   1.201   5.139   4.378 -0.7503  1.4809 -0.9580
  133OSM   C15S14315   1.362   5.276   4.452  0.1400  0.0103  0.0929
  133OSM   H15S14316   1.463   5.309   4.420  1.1015 -1.8483  1.0806
  133OSM   H15T14317   1.382   5.233   4.552  0.4023 -1.5094 -0.5825
  133OSM   C16S14318   1.267   5.404   4.465 -0.8785  0.9615 -0.4243
  133OSM   H16S14319   1.171   5.354   4.490  0.2480 -0.6570  0.8369
  133OSM   H16T14320   1.262   5.449   4.363  0.1683 -1.3762 -1.5779
  133OSM   C17S14321   1.299   5.491   4.590 -0.1808  0.4527  0.1561
  133OSM   H17S14322   1.318   5.422   4.675 -3.6158 -0.4689  0.3107
  133OSM   H17T14323   1.213   5.552   4.625  0.6091  2.1069 -0.6979
  133OSM   C18S14324   1.407   5.586   4.552  0.1909  0.0641  0.0994
  133OSM   H18S14325   1.376   5.639   4.459 -1.2411 -1.4701 -0.3538
  133OSM   H18T14326   1.499   5.528   4.530  0.8707  1.1326  0.0598
  133OSM   H18U14327   1.431   5.660   4.631 -0.5071 -1.3267  1.6620
  133OSM    C1F14328   1.731   5.654   3.079  0.2746 -0.4049 -0.3402
  133OSM     OF14329   1.667   5.705   2.985 -0.4222 -0.3439 -0.2874
  133OSM    C2F14330   1.840   5.730   3.162  0.3716  0.2376  0.3848
  133OSM    H2F14331   1.781   5.812   3.209  1.0570  0.9516  0.0228
  133OSM    H2G14332   1.920   5.763   3.092  0.5603 -2.4502 -0.7854
  133OSM    C3F14333   1.889   5.650   3.284  1.2899 -1.1747  0.0589
  133OSM    H3F14334   1.957   5.572   3.243  0.8789 -1.5463  0.0794
  133OSM    H3G14335   1.803   5.612   3.343 -0.3166 -0.2603 -1.5996
  133OSM    C4F14336   1.966   5.745   3.385 -0.2458 -0.2797 -1.3229
  133OSM    H4F14337   1.899   5.824   3.425 -0.1088 -1.1343  0.6894
  133OSM    H4G14338   2.041   5.793   3.318  1.5275 -0.5956  0.3604
  133OSM    C5F14339   2.027   5.663   3.497 -0.6137 -0.1455 -0.5968
  133OSM    H5F14340   2.105   5.604   3.445 -0.4432  1.2013 -1.9334
  133OSM    H5G14341   1.950   5.592   3.534  2.2469 -3.1643  0.0029
  133OSM    C6F14342   2.105   5.731   3.612 -0.2911  0.8254  0.7273
  133OSM    H6F14343   2.143   5.652   3.680  0.8227  0.9607  0.2760
  133OSM    H6G14344   2.048   5.802   3.675  0.5827  0.8262  1.5411
  133OSM    C7F14345   2.235   5.784   3.555  0.0799  0.3680 -0.1470
  133OSM    H7F14346   2.213   5.856   3.473 -0.1187  0.0233 -0.3979
  133OSM    H7G14347   2.287   5.698   3.507  0.9863  0.4279  0.7005
  133OSM    C8F14348   2.313   5.862   3.667  0.8406 -0.3852 -0.3551
  133OSM    H8F14349   2.239   5.927   3.718 -0.4279 -1.4596 -0.7704
  133OSM    H8G14350   2.379   5.928   3.606  1.5089 -1.3208 -0.6574
  133OSM    C9F14351   2.390   5.787   3.768 -0.2589  0.4093 -0.1297
  133OSM    H9F14352   2.473   5.727   3.729 -0.0051  0.4517  0.3462
  133OSM   C10F14353   2.367   5.784   3.899 -0.3941 -0.1950 -0.2055
  133OSM   H10F14354   2.438   5.722   3.955 -0.0741 -0.8635 -1.3144
  133OSM   C11F14355   2.252   5.855   3.971 -0.3422  0.1439  0.5115
  133OSM   H11F14356   2.165   5.855   3.901  0.8032  2.0381 -1.0070
  133OSM   H11G14357   2.274   5.962   3.988 -0.4290 -0.2577  3.8000
  133OSM   C12F14358   2.212   5.790   4.100  0.4644 -0.1004  0.5349
  133OSM   H12F14359   2.175   5.687   4.081  1.2400 -0.9501  3.2556
  133OSM   H12G14360   2.128   5.849   4.142 -0.1276 -0.9335  0.5365
  133OSM   C13F14361   2.320   5.775   4.211  0.1033 -0.3348  0.5216
  133OSM   H13F14362   2.374   5.871   4.218  0.0285 -0.0951 -1.7410
  133OSM   H13G14363   2.385   5.696   4.168 -2.1059 -1.9020 -0.1164
  133OSM   C14F14364   2.274   5.745   4.349 -0.3444  0.3389  0.2650
  133OSM   H14F14365   2.223   5.646   4.348 -0.0289  0.1528  1.3004
  133OSM   H14G14366   2.196   5.821   4.368 -2.0245 -1.1699 -0.3015
  133OSM   C15F14367   2.388   5.733   4.450  1.0116  0.0407 -0.8063
  133OSM   H15F14368   2.431   5.835   4.459 -2.2393  1.5844 -1.2387
  133OSM   H15G14369   2.463   5.658   4.415  0.7069 -0.2319 -0.8775
  133OSM   C16F14370   2.336   5.698   4.590 -0.1298  0.1067  0.8582
  133OSM   H16F14371   2.258   5.619   4.594  2.1936 -2.4875 -1.1762
  133OSM   H16G14372   2.308   5.798   4.631  0.4300  0.9104 -0.6573
  133OSM   C17F14373   2.441   5.638   4.689  0.0992 -0.4434 -0.0610
  133OSM   H17F14374   2.509   5.724   4.705 -0.6607 -0.1304  1.7066
  133OSM   H17G14375   2.494   5.556   4.635  1.3246 -0.4039  1.0563
  133OSM   C18F14376   2.376   5.593   4.822 -0.6984 -0.2721 -0.0177
  133OSM   H18F14377   2.351   5.684   4.881  0.2858 -0.6916  1.1051
  133OSM   H18G14378   2.461   5.550   4.879 -2.0488  0.0190  2.3868
  133OSM   H18H14379   2.291   5.523   4.811 -0.5335 -0.5294  0.3207
  134OSM      N14380   0.262   3.595   2.910  0.0297 -0.1198  0.7509
  134OSM    C1514381   0.291   3.519   3.035  0.1980 -0.3483  0.2026
  134OSM   H15A14382   0.238   3.567   3.117 -1.8228 -0.0422 -1.2126
  134OSM   H15B14383   0.398   3.526   3.051  0.3990  0.0717 -1.2391
  134OSM   H15C14384   0.265   3.416   3.020 -0.3545 -0.1822  0.0133
  134OSM    C1414385   0.307   3.513   2.802 -0.5340  0.3773  0.0955
  134OSM   H14A14386   0.413   3.495   2.791 -0.7484  0.3948 -2.7025
  134OSM   H14B14387   0.272   3.554   2.708 -1.2765  0.3461  0.3472
  134OSM   H14C14388   0.275   3.410   2.815  1.4684 -0.4268 -0.9755
  134OSM    C1314389   0.111   3.607   2.899 -0.6354 -0.2039 -0.9789
  134OSM   H13A14390   0.070   3.647   2.991 -3.2204  1.8353 -2.8750
  134OSM   H13B14391   0.063   3.512   2.881 -3.2725  0.8944 -0.2433
  134OSM   H13C14392   0.082   3.678   2.822 -2.5496  0.7423  0.5278
  134OSM    C1214393   0.314   3.729   2.899 -0.2523  0.1168 -0.5163
  134OSM   H12A14394   0.272   3.778   2.813  2.4276  1.7181 -1.0236
  134OSM   H12B14395   0.417   3.743   2.870 -0.2212  2.1070  0.3560
  134OSM    C1114396   0.293   3.834   3.016 -0.2496  0.5187  0.1294
  134OSM   H11A14397   0.362   3.921   3.004  0.3088 -0.0573 -0.9199
  134OSM   H11B14398   0.326   3.777   3.105  0.7533 -0.9063 -1.0992
  134OSM      P14399   0.102   3.982   2.928  0.1180 -0.2375  0.4181
  134OSM    O1314400   0.193   3.988   2.812  0.2969  0.1029 -0.8716
  134OSM    O1414401  -0.040   3.963   2.898 -0.0436 -0.7723 -0.3688
  134OSM    O1114402   0.113   4.109   3.010 -0.3468  0.6360 -0.2144
  134OSM    O1214403   0.161   3.872   3.037 -0.1451  0.2300  0.8729
  134OSM    C1S14404   0.043   4.117   3.131  0.1911  0.4230 -0.0491
  134OSM    H1S14405  -0.051   4.058   3.130 -0.2480  1.0592  1.1735
  134OSM    H1T14406   0.022   4.223   3.155 -2.0997 -0.2372  1.0693
  134OSM     NF14407   0.043   4.090   3.379  0.1112  0.0283  0.2961
  134OSM    HNF14408   0.044   4.178   3.426 -0.5363  0.3166 -0.2194
  134OSM    C2S14409   0.124   4.078   3.257  0.6141  0.0119 -0.4746
  134OSM    H2S14410   0.158   3.973   3.245 -1.5738 -0.8006  0.0598
  134OSM    C3S14411   0.249   4.176   3.262  0.1270  0.4391  0.3691
  134OSM    H3S14412   0.217   4.283   3.263 -2.6198 -0.3014  0.2792
  134OSM     O314413   0.335   4.162   3.146 -0.3155  0.1419 -0.1330
  134OSM    HO314414   0.282   4.119   3.078 -0.7757 -1.0605  0.9367
  134OSM    C4S14415   0.338   4.163   3.386  0.3187 -0.3271  0.2592
  134OSM    H4S14416   0.389   4.066   3.400  3.4479  0.6193 -3.1022
  134OSM    C5S14417   0.356   4.265   3.472  0.3546 -0.3688  0.6539
  134OSM    H5S14418   0.291   4.354   3.477 -2.2812 -2.2028  1.1199
  134OSM    C6S14419   0.427   4.239   3.602  1.0889 -0.0490  0.5487
  134OSM    H6S14420   0.501   4.323   3.608 -0.9485  1.7482  1.8606
  134OSM    H6T14421   0.472   4.138   3.616  1.3990  0.2410  1.7161
  134OSM    C7S14422   0.335   4.240   3.721  0.3885  0.9760 -0.5566
  134OSM    H7S14423   0.279   4.144   3.719 -1.8900  2.2133  0.0137
  134OSM    H7T14424   0.270   4.330   3.713  0.7571  1.1974 -1.1277
  134OSM    C8S14425   0.416   4.247   3.850 -0.2036  0.0294  0.6105
  134OSM    H8S14426   0.488   4.331   3.855 -1.6325  1.2799  0.8744
  134OSM    H8T14427   0.479   4.156   3.865  0.9105  0.7314  0.2927
  134OSM    C9S14428   0.319   4.271   3.967 -0.0034 -0.0354  0.2090
  134OSM    H9S14429   0.246   4.188   3.979  0.3452 -0.3084  0.4304
  134OSM    H9T14430   0.257   4.362   3.947  1.2378  0.7804 -0.0097
  134OSM   C10S14431   0.399   4.312   4.090 -0.8621  0.1992  0.4784
  134OSM   H10S14432   0.449   4.411   4.078 -2.6752  0.9688 -1.1636
  134OSM   H10T14433   0.480   4.238   4.108 -0.7191  0.1942 -0.1582
  134OSM   C11S14434   0.310   4.324   4.219 -0.4969  0.3078  0.5654
  134OSM   H11S14435   0.233   4.245   4.221 -0.4727  0.2902  2.5718
  134OSM   H11T14436   0.260   4.423   4.206 -1.1736  0.0302  1.0389
  134OSM   C12S14437   0.402   4.333   4.345 -0.0569 -0.0071  0.2473
  134OSM   H12S14438   0.466   4.424   4.345 -1.7144  1.2331  1.6992
  134OSM   H12T14439   0.470   4.246   4.336  1.4141  1.2170 -1.0286
  134OSM   C13S14440   0.323   4.324   4.479 -0.1683  0.6964  0.5635
  134OSM   H13S14441   0.390   4.327   4.567  0.5520 -1.5266  0.1632
  134OSM   H13T14442   0.263   4.230   4.485 -0.2627  0.7368  0.2887
  134OSM   C14S14443   0.233   4.454   4.508 -0.5064 -0.0586 -0.3289
  134OSM   H14S14444   0.178   4.462   4.412  1.7764  0.2182 -1.6779
  134OSM   H14T14445   0.299   4.542   4.492  0.9395 -1.1877 -0.8351
  134OSM   C15S14446   0.148   4.459   4.634 -0.4842 -0.6187 -0.2611
  134OSM   H15S14447   0.107   4.560   4.655  1.2736  0.1153 -0.2072
  134OSM   H15T14448   0.195   4.431   4.731  0.9913 -0.1971 -0.8230
  134OSM   C16S14449   0.027   4.363   4.614 -0.0130  0.4143 -0.1916
  134OSM   H16S14450   0.066   4.259   4.602 -2.3749 -0.7430  1.3157
  134OSM   H16T14451  -0.028   4.386   4.521 -3.3652 -2.7910  0.7425
  134OSM   C17S14452  -0.069   4.367   4.731 -0.2846  0.8289  0.4499
  134OSM   H17S14453  -0.098   4.473   4.748  1.5564  0.8078  5.2381
  134OSM   H17T14454  -0.035   4.334   4.831  0.6800  2.8257  0.8406
  134OSM   C18S14455  -0.192   4.285   4.699  0.4610 -0.0372  0.2117
  134OSM   H18S14456  -0.217   4.296   4.591 -0.8643  2.0094  0.6782
  134OSM   H18T14457  -0.279   4.329   4.751  0.6036  0.7637 -0.2194
  134OSM   H18U14458  -0.173   4.182   4.736  0.9968  0.2973  0.8974
  134OSM    C1F14459  -0.054   4.006   3.409  0.0250  0.2547  1.4442
  134OSM     OF14460  -0.069   3.907   3.332  0.4909  0.4559 -0.3273
  134OSM    C2F14461  -0.154   4.037   3.517  0.3891  0.9462  0.0597
  134OSM    H2F14462  -0.245   4.073   3.464  0.6138  0.1876 -0.8512
  134OSM    H2G14463  -0.110   4.113   3.584  0.4501  1.5828 -0.6971
  134OSM    C3F14464  -0.193   3.911   3.606  0.0569  0.3672 -0.1079
  134OSM    H3F14465  -0.210   3.829   3.533  0.5955 -0.4214  0.6345
  134OSM    H3G14466  -0.287   3.934   3.660 -0.1545 -1.5141  0.4060
  134OSM    C4F14467  -0.081   3.869   3.703  0.6956 -0.0713 -0.4360
  134OSM    H4F14468   0.006   3.833   3.644 -0.0050 -3.4705  0.4018
  134OSM    H4G14469  -0.112   3.782   3.765 -0.2256  1.1702  0.9214
  134OSM    C5F14470  -0.031   3.981   3.803  0.5803  0.0511 -0.1265
  134OSM    H5F14471  -0.018   4.082   3.759 -0.8265  0.4317  0.2809
  134OSM    H5G14472   0.068   3.956   3.849  0.2173  0.1733  0.7342
  134OSM    C6F14473  -0.122   4.002   3.932 -0.6900  0.2087 -0.1787
  134OSM    H6F14474  -0.132   3.912   3.996 -2.7179  1.0975  0.8255
  134OSM    H6G14475  -0.227   4.029   3.910 -1.4234 -1.1990  1.3454
  134OSM    C7F14476  -0.081   4.122   4.026 -0.0792  0.9516 -0.7234
  134OSM    H7F14477  -0.059   4.205   3.956  2.5233  0.4310 -0.6108
  134OSM    H7G14478   0.013   4.100   4.081  0.0108  1.3887 -0.6963
  134OSM    C8F14479  -0.193   4.150   4.127  0.0986  0.5554  0.3325
  134OSM    H8F14480  -0.213   4.060   4.188 -4.2213  1.8036  1.0545
  134OSM    H8G14481  -0.284   4.166   4.065 -0.7751  1.9261  1.9042
  134OSM    C9F14482  -0.176   4.265   4.231 -0.1284  0.0919 -0.1408
  134OSM    H9F14483  -0.085   4.254   4.292  0.6142  0.9003 -1.0856
  134OSM   C10F14484  -0.258   4.370   4.276 -0.2199 -0.3127  0.4343
  134OSM   H10F14485  -0.214   4.446   4.341  0.1034 -0.6469  0.6137
  134OSM   C11F14486  -0.391   4.402   4.222  0.7296 -0.1674  0.6745
  134OSM   H11F14487  -0.424   4.318   4.158 -1.8420  1.2621  0.0016
  134OSM   H11G14488  -0.388   4.496   4.163  0.1396  0.2715  1.3283
  134OSM   C12F14489  -0.492   4.423   4.336  0.5321 -0.3931 -0.6455
  134OSM   H12F14490  -0.568   4.495   4.300  0.3062 -0.7879 -0.9596
  134OSM   H12G14491  -0.440   4.469   4.423  0.2356 -1.0764 -0.0980
  134OSM   C13F14492  -0.547   4.285   4.385 -0.3244 -0.5222 -0.2798
  134OSM   H13F14493  -0.455   4.229   4.412 -1.0426 -0.5158  2.4127
  134OSM   H13G14494  -0.588   4.244   4.290 -1.3759 -1.1217  0.4039
  134OSM   C14F14495  -0.639   4.296   4.504  0.1266 -0.1622 -0.0803
  134OSM   H14F14496  -0.667   4.190   4.518  0.8442 -0.4487 -0.7497
  134OSM   H14G14497  -0.730   4.358   4.491  1.4398  1.9607  0.2904
  134OSM   C15F14498  -0.563   4.339   4.632  0.2028  0.2282 -0.1644
  134OSM   H15F14499  -0.553   4.448   4.615 -0.9831  0.4775  0.6097
  134OSM   H15G14500  -0.457   4.307   4.634  1.0642  2.8735  0.1087
  134OSM   C16F14501  -0.638   4.303   4.765  0.2076 -0.1205  0.8787
  134OSM   H16F14502  -0.630   4.194   4.782  0.8276 -0.5745 -1.8565
  134OSM   H16G14503  -0.748   4.318   4.755  0.1495 -1.7941 -1.6674
  134OSM   C17F14504  -0.577   4.381   4.894  0.4423 -0.5082 -0.5506
  134OSM   H17F14505  -0.604   4.488   4.882  0.4938 -0.5133 -0.7193
  134OSM   H17G14506  -0.466   4.370   4.893  0.5902  0.5489  0.8317
  134OSM   C18F14507  -0.637   4.324   5.026 -0.6266  0.0523 -0.6288
  134OSM   H18F14508  -0.599   4.220   5.021  0.5684  0.4755 -0.7379
  134OSM   H18G14509  -0.746   4.343   5.039 -0.9181 -0.2412 -2.3662
  134OSM   H18H14510  -0.588   4.369   5.115 -1.3780 -1.1596  0.4251
  135OSM      N14511   3.300   0.955   2.735  0.1678  0.0805 -0.3471
  135OSM    C1514512   3.291   0.808   2.694  0.2861  0.0466  0.2221
  135OSM   H15A14513   3.363   0.750   2.750 -1.0217 -2.5271 -0.6082
  135OSM   H15B14514   3.307   0.790   2.589  0.2382  0.2933  0.1716
  135OSM   H15C14515   3.192   0.769   2.715 -0.1874 -0.2826 -2.3306
  135OSM    C1414516   3.432   1.001   2.678  0.1637  0.6421 -0.4496
  135OSM   H14A14517   3.461   1.100   2.706  1.7826  0.2170 -0.5176
  135OSM   H14B14518   3.434   0.984   2.571  1.9451 -1.1232 -0.2002
  135OSM   H14C14519   3.512   0.937   2.714  1.0726  2.3355  0.6344
  135OSM    C1314520   3.199   1.042   2.668  0.2834  0.4636  0.1698
  135OSM   H13A14521   3.200   1.139   2.716  2.0709  1.0141 -0.8944
  135OSM   H13B14522   3.105   0.990   2.675 -0.7373  1.9999 -1.2563
  135OSM   H13C14523   3.216   1.062   2.564  0.7812  3.6657  0.7620
  135OSM    C1214524   3.291   0.962   2.889 -0.8101 -0.1527  0.2496
  135OSM   H12A14525   3.190   0.936   2.917 -0.1001 -1.3729  1.8057
  135OSM   H12B14526   3.303   1.062   2.929  1.1120 -1.0140  2.0160
  135OSM    C1114527   3.379   0.866   2.966 -0.6152  0.3103 -0.9425
  135OSM   H11A14528   3.358   0.761   2.940  1.9680 -0.7137  0.6789
  135OSM   H11B14529   3.362   0.863   3.076  0.3025 -0.7777 -0.8123
  135OSM      P14530   3.593   0.991   3.032  0.1221  0.0019  0.1747
  135OSM    O1314531   3.724   1.018   2.971 -0.4863  0.0063  0.1864
  135OSM    O1414532   3.505   1.106   3.048  0.1515  0.2574 -0.0281
  135OSM    O1114533   3.618   0.913   3.166  0.2861 -0.4551  0.0234
  135OSM    O1214534   3.514   0.878   2.947  0.0590  0.3710  0.6135
  135OSM    C1S14535   3.626   0.995   3.290  0.8627 -0.3414  0.6333
  135OSM    H1S14536   3.608   1.102   3.266 -0.9155 -0.8892 -0.7152
  135OSM    H1T14537   3.729   0.994   3.331  1.1593 -0.4318 -0.0981
  135OSM     NF14538   3.514   1.051   3.504  0.0258 -0.0718  0.3943
  135OSM    HNF14539   3.567   1.043   3.588 -1.9286 -1.3236  1.6096
  135OSM    C2S14540   3.530   0.950   3.409  0.4093 -0.5275 -0.2868
  135OSM    H2S14541   3.432   0.923   3.364  1.4170 -2.0788 -1.7026
  135OSM    C3S14542   3.596   0.824   3.466 -0.6959  0.0071 -1.0264
  135OSM    H3S14543   3.692   0.855   3.513 -2.0051  1.5456  0.8056
  135OSM     O314544   3.625   0.724   3.367 -0.2946  0.3178  0.4611
  135OSM    HO314545   3.604   0.771   3.286 -1.8810 -0.8377  0.1465
  135OSM    C4S14546   3.509   0.754   3.577 -0.1549 -0.0998 -0.3898
  135OSM    H4S14547   3.504   0.817   3.668 -2.0197 -1.0555  0.2318
  135OSM    C5S14548   3.439   0.640   3.575  0.6294 -0.0977 -0.6525
  135OSM    H5S14549   3.431   0.577   3.484 -2.1165  1.2592 -1.4542
  135OSM    C6S14550   3.370   0.585   3.701 -0.6048 -0.4228 -0.7142
  135OSM    H6S14551   3.390   0.476   3.710 -0.7691 -0.3282  1.2908
  135OSM    H6T14552   3.260   0.580   3.690 -0.5692  0.5198 -1.5836
  135OSM    C7S14553   3.412   0.647   3.840  0.0660 -0.2020 -0.1187
  135OSM    H7S14554   3.381   0.753   3.838  1.3326  0.4046  3.9103
  135OSM    H7T14555   3.523   0.645   3.850  0.0528 -0.8985 -0.0302
  135OSM    C8S14556   3.347   0.595   3.973 -1.0656 -0.2201  0.0828
  135OSM    H8S14557   3.383   0.490   3.968  2.2360  0.8405 -1.4166
  135OSM    H8T14558   3.237   0.596   3.956 -1.2691  0.9205  1.3066
  135OSM    C9S14559   3.397   0.673   4.094  0.1471  0.1954  0.0614
  135OSM    H9S14560   3.346   0.771   4.090  0.2032  0.2544  0.6835
  135OSM    H9T14561   3.507   0.687   4.099  0.2553  0.3221 -2.0179
  135OSM   C10S14562   3.351   0.611   4.234 -0.3461 -0.8421  0.3471
  135OSM   H10S14563   3.386   0.506   4.241  0.5854 -0.4344  3.2693
  135OSM   H10T14564   3.240   0.621   4.233 -0.2793  0.2882 -1.5095
  135OSM   C11S14565   3.412   0.686   4.357  0.3474 -0.4235  0.3638
  135OSM   H11S14566   3.481   0.760   4.311 -1.3027 -0.0289 -1.6458
  135OSM   H11T14567   3.463   0.623   4.433 -1.7047 -1.6351  0.8160
  135OSM   C12S14568   3.295   0.748   4.440 -0.6965 -0.3620 -0.5402
  135OSM   H12S14569   3.218   0.795   4.375 -1.0090  0.2358  0.2607
  135OSM   H12T14570   3.329   0.833   4.502 -1.9479  0.4533 -0.9450
  135OSM   C13S14571   3.240   0.640   4.544  0.1723 -0.3522  0.5053
  135OSM   H13S14572   3.312   0.564   4.581 -0.5404 -1.1047  0.3856
  135OSM   H13T14573   3.166   0.579   4.488  0.3956 -0.1897  0.0298
  135OSM   C14S14574   3.184   0.698   4.675 -0.1714 -0.4180  0.6542
  135OSM   H14S14575   3.103   0.769   4.648 -0.2184 -0.6259  0.2388
  135OSM   H14T14576   3.255   0.755   4.738  0.9165  0.8211 -1.5691
  135OSM   C15S14577   3.119   0.581   4.748  0.3931  0.5585  0.3879
  135OSM   H15S14578   3.190   0.501   4.777  1.0439  1.1789  0.5311
  135OSM   H15T14579   3.037   0.536   4.688  0.7577 -1.6713  1.4681
  135OSM   C16S14580   3.060   0.624   4.881  0.2729 -0.1745 -0.1545
  135OSM   H16S14581   2.997   0.715   4.883 -0.7111 -0.7657  3.4418
  135OSM   H16T14582   3.144   0.658   4.946 -1.7615  1.1842  1.8734
  135OSM   C17S14583   2.984   0.514   4.963  0.3911 -0.1591  0.0786
  135OSM   H17S14584   3.051   0.427   4.982  2.5128  1.1938 -0.8770
  135OSM   H17T14585   2.895   0.474   4.911  1.1630 -3.0234  0.7590
  135OSM   C18S14586   2.940   0.562   5.100 -0.2046  0.3203 -0.2396
  135OSM   H18S14587   2.872   0.650   5.091  0.3198  0.6717 -0.8828
  135OSM   H18T14588   3.024   0.596   5.164  0.9585 -1.9609 -0.4492
  135OSM   H18U14589   2.897   0.478   5.157  0.4502  0.4170  0.4199
  135OSM    C1F14590   3.439   1.163   3.486  0.2163 -0.0342  0.5681
  135OSM     OF14591   3.345   1.159   3.409  0.1290 -0.4735  0.7848
  135OSM    C2F14592   3.450   1.266   3.595 -0.0483  0.4363  0.0657
  135OSM    H2F14593   3.551   1.312   3.584  0.3745 -0.3336  0.6402
  135OSM    H2G14594   3.457   1.203   3.686 -0.0759  0.5115  0.1195
  135OSM    C3F14595   3.333   1.374   3.605 -0.4229  0.8541  0.5282
  135OSM    H3F14596   3.233   1.326   3.620  0.1423  0.1433  2.3055
  135OSM    H3G14597   3.340   1.436   3.513  2.7043  3.3031  2.2146
  135OSM    C4F14598   3.350   1.483   3.714  0.2656 -0.1436  0.2974
  135OSM    H4F14599   3.260   1.546   3.702 -0.5991 -1.4997 -0.6878
  135OSM    H4G14600   3.434   1.548   3.683 -0.3883  0.9047  0.6762
  135OSM    C5F14601   3.346   1.429   3.858  1.0705 -1.1801 -0.1424
  135OSM    H5F14602   3.443   1.379   3.879  0.8387 -0.8814  1.8051
  135OSM    H5G14603   3.265   1.354   3.865 -1.1070  0.8445 -2.0202
  135OSM    C6F14604   3.320   1.546   3.957  0.5512  0.2156  0.3721
  135OSM    H6F14605   3.230   1.601   3.921 -2.0854 -2.8857  1.6965
  135OSM    H6G14606   3.405   1.617   3.950  0.7914 -0.0105  0.9569
  135OSM    C7F14607   3.306   1.508   4.106 -0.8441 -0.6805  0.1033
  135OSM    H7F14608   3.405   1.479   4.148  0.1483  0.7796 -1.1740
  135OSM    H7G14609   3.225   1.431   4.106 -0.2339 -1.3433 -0.9030
  135OSM    C8F14610   3.241   1.613   4.198 -0.3194 -0.3052 -0.1865
  135OSM    H8F14611   3.235   1.570   4.301  0.3946  0.1104  0.0344
  135OSM    H8G14612   3.137   1.642   4.170 -0.0970  1.9007  1.0390
  135OSM    C9F14613   3.316   1.745   4.192  0.4157  0.1960  0.2117
  135OSM    H9F14614   3.344   1.773   4.089 -2.0108 -1.1958 -0.9155
  135OSM   C10F14615   3.350   1.821   4.302 -0.2131 -0.3656 -0.0536
  135OSM   H10F14616   3.407   1.913   4.280 -0.1448 -0.8194 -1.9140
  135OSM   C11F14617   3.313   1.789   4.443 -0.3597  0.0196  0.0124
  135OSM   H11F14618   3.329   1.682   4.465 -0.2820 -0.6890 -3.0801
  135OSM   H11G14619   3.204   1.801   4.459 -0.5086 -1.7361  0.5301
  135OSM   C12F14620   3.405   1.871   4.541 -0.2669  0.3339 -0.2331
  135OSM   H12F14621   3.364   1.974   4.547 -0.4257  0.2856 -0.4984
  135OSM   H12G14622   3.509   1.884   4.504 -1.4015 -0.2039 -3.9543
  135OSM   C13F14623   3.408   1.802   4.684 -0.6031 -0.7094  0.3605
  135OSM   H13F14624   3.451   1.702   4.663  1.7647  0.1663  0.6626
  135OSM   H13G14625   3.309   1.789   4.731 -1.4007  0.5221 -0.8995
  135OSM   C14F14626   3.504   1.871   4.774 -0.1585 -0.6077 -0.1140
  135OSM   H14F14627   3.600   1.898   4.726  0.9342 -0.9164  1.8001
  135OSM   H14G14628   3.537   1.802   4.855  2.7376 -1.9608 -2.2433
  135OSM   C15F14629   3.451   2.007   4.841  0.1593  0.3448  0.5972
  135OSM   H15F14630   3.351   1.996   4.887  0.5580  1.2328  1.7234
  135OSM   H15G14631   3.447   2.092   4.769 -0.7448 -0.0465  0.1731
  135OSM   C16F14632   3.555   2.045   4.948  0.7304 -0.4502 -0.4199
  135OSM   H16F14633   3.646   2.086   4.899  0.6643  1.3466  0.8524
  135OSM   H16G14634   3.587   1.963   5.015 -0.7154 -0.5476  0.1954
  135OSM   C17F14635   3.508   2.148   5.056  0.8472 -0.3298 -0.0313
  135OSM   H17F14636   3.589   2.168   5.129  1.4450  2.9565 -1.4332
  135OSM   H17G14637   3.431   2.093   5.115  2.1891 -0.6534  1.4941
  135OSM   C18F14638   3.454   2.279   4.998 -0.8566  0.6908  0.4802
  135OSM   H18F14639   3.441   2.352   5.081 -1.3346  0.3404  0.7159
  135OSM   H18G14640   3.370   2.255   4.929  1.0976  1.1818 -2.2302
  135OSM   H18H14641   3.530   2.326   4.932 -0.3809 -0.2769  0.3323
  136OSM      N14642   0.076   4.372   2.810  0.3832 -0.0848 -0.1195
  136OSM    C1514643   0.047   4.509   2.758 -0.9042 -0.1907  0.8132
  136OSM   H15A14644   0.136   4.554   2.718 -0.3983 -0.4735  1.6136
  136OSM   H15B14645   0.013   4.571   2.840 -0.6178  2.1178 -0.7164
  136OSM   H15C14646  -0.039   4.520   2.692 -1.1278  1.0083  1.2732
  136OSM    C1414647  -0.056   4.299   2.807 -0.4716  0.0946  0.0011
  136OSM   H14A14648  -0.049   4.192   2.820  0.6474  0.2238  0.5887
  136OSM   H14B14649  -0.107   4.314   2.713  0.9790  0.1105 -0.8072
  136OSM   H14C14650  -0.118   4.347   2.882 -1.1493  1.4967 -1.4016
  136OSM    C1314651   0.170   4.300   2.713 -0.3588  0.1105  0.0517
  136OSM   H13A14652   0.262   4.355   2.698  1.4231 -2.5278  0.6007
  136OSM   H13B14653   0.131   4.298   2.612  2.0096  0.4764 -0.9595
  136OSM   H13C14654   0.201   4.200   2.739 -0.8779  0.5427  2.5869
  136OSM    C1214655   0.134   4.390   2.942  0.4163 -0.0360 -0.4033
  136OSM   H12A14656   0.232   4.435   2.932  0.4828 -0.1688 -0.3439
  136OSM   H12B14657   0.144   4.293   2.988 -0.3170  0.2745  0.4250
  136OSM    C1114658   0.053   4.477   3.038 -0.7390 -0.3592 -0.3163
  136OSM   H11A14659   0.082   4.465   3.145 -0.7855  4.9871  0.5544
  136OSM   H11B14660  -0.050   4.436   3.042 -2.2837  3.2754  2.0373
  136OSM      P14661   0.165   4.716   3.027  0.3928  0.0369  0.3273
  136OSM    O1314662   0.275   4.661   2.950  0.1150 -0.0842 -0.7347
  136OSM    O1414663   0.111   4.849   2.980 -0.8299  0.5820  0.1650
  136OSM    O1114664   0.201   4.698   3.179 -0.0762  0.0116  0.3477
  136OSM    O1214665   0.050   4.616   3.014 -0.4877  1.1835 -0.8969
  136OSM    C1S14666   0.244   4.825   3.243  0.3062  0.1173  0.1643
  136OSM    H1S14667   0.166   4.903   3.234  1.7197  1.5040 -0.6624
  136OSM    H1T14668   0.337   4.861   3.193  0.5119  0.5355  0.8360
  136OSM     NF14669   0.255   4.915   3.475 -0.2948 -0.7354 -0.2959
  136OSM    HNF14670   0.330   4.981   3.474 -1.2067  0.3307 -1.2015
  136OSM    C2S14671   0.267   4.799   3.387 -0.3662 -0.1622 -0.4137
  136OSM    H2S14672   0.185   4.731   3.419  0.8901 -1.3366  0.4414
  136OSM    C3S14673   0.396   4.720   3.403 -0.3985  0.0465  0.2743
  136OSM    H3S14674   0.472   4.772   3.341  0.2341 -1.5235 -0.3239
  136OSM     O314675   0.374   4.591   3.347  0.2291  0.7744 -0.0818
  136OSM    HO314676   0.285   4.609   3.317 -0.8885  0.4560  2.7328
  136OSM    C4S14677   0.453   4.699   3.537  0.5181 -0.2560  0.2126
  136OSM    H4S14678   0.397   4.634   3.606  2.0666 -1.5601  0.2962
  136OSM    C5S14679   0.562   4.748   3.594  0.6391 -0.0490 -0.4292
  136OSM    H5S14680   0.639   4.813   3.548  2.0482  0.8697  2.9501
  136OSM    C6S14681   0.607   4.706   3.723 -0.0604  0.2078 -0.3459
  136OSM    H6S14682   0.710   4.667   3.713  0.6212  1.8980 -0.1576
  136OSM    H6T14683   0.537   4.628   3.760  0.1502  0.4360  0.5550
  136OSM    C7S14684   0.602   4.810   3.833  0.4372  1.1249  0.1804
  136OSM    H7S14685   0.497   4.848   3.838 -0.5984 -1.6364  1.4999
  136OSM    H7T14686   0.667   4.897   3.807 -0.8877  1.8045 -0.9920
  136OSM    C8S14687   0.643   4.751   3.967 -0.0611  0.4974 -0.1644
  136OSM    H8S14688   0.752   4.765   3.984 -0.3495  1.3850  1.0388
  136OSM    H8T14689   0.627   4.641   3.969  0.2193  0.4740  1.1276
  136OSM    C9S14690   0.555   4.801   4.081 -0.2660 -0.3896  0.2727
  136OSM    H9S14691   0.453   4.765   4.057 -0.1664 -0.1067 -0.6016
  136OSM    H9T14692   0.554   4.912   4.078 -2.2482 -0.3714 -0.1745
  136OSM   C10S14693   0.604   4.746   4.222  0.4687 -0.2309  0.4884
  136OSM   H10S14694   0.697   4.799   4.251 -0.6066  1.0283  1.7627
  136OSM   H10T14695   0.641   4.643   4.202 -1.0183 -0.8414  0.7809
  136OSM   C11S14696   0.503   4.758   4.338 -0.4777  0.8234  0.7542
  136OSM   H11S14697   0.548   4.713   4.429  0.5515 -0.1451 -0.2054
  136OSM   H11T14698   0.422   4.693   4.298 -0.0051  0.5932  0.1586
  136OSM   C12S14699   0.452   4.896   4.374 -0.7209 -0.1462  0.4609
  136OSM   H12S14700   0.411   4.940   4.281  0.0444 -0.8739 -0.2311
  136OSM   H12T14701   0.530   4.961   4.418 -0.9751  0.1843  0.4234
  136OSM   C13S14702   0.326   4.889   4.467  0.0498  0.9974 -0.3958
  136OSM   H13S14703   0.270   4.794   4.459 -0.5487  0.9661  2.8226
  136OSM   H13T14704   0.253   4.970   4.443 -1.0416  0.2875  0.4409
  136OSM   C14S14705   0.366   4.884   4.615 -0.1124 -0.3419 -0.2452
  136OSM   H14S14706   0.408   4.981   4.648  1.7341 -1.1457 -0.0603
  136OSM   H14T14707   0.447   4.810   4.633 -0.1951 -0.1796  0.8671
  136OSM   C15S14708   0.252   4.835   4.700 -0.1161 -0.2087  0.0044
  136OSM   H15S14709   0.209   4.737   4.670  0.5410 -0.8353  1.0713
  136OSM   H15T14710   0.170   4.909   4.685 -0.7911 -0.5777  1.6313
  136OSM   C16S14711   0.290   4.829   4.850 -0.0892  0.4232  0.2152
  136OSM   H16S14712   0.294   4.929   4.897  0.1443  0.4975  0.0421
  136OSM   H16T14713   0.390   4.782   4.858 -1.9301 -3.7052  1.9428
  136OSM   C17S14714   0.207   4.730   4.939  0.5738 -0.1995  0.1129
  136OSM   H17S14715   0.227   4.744   5.048 -2.1271  2.1354  0.4509
  136OSM   H17T14716   0.230   4.628   4.902  0.6721 -0.2177  0.2229
  136OSM   C18S14717   0.055   4.750   4.930 -0.1661  0.1861 -0.0586
  136OSM   H18S14718   0.020   4.726   4.827  1.6190 -0.7265 -0.4870
  136OSM   H18T14719   0.027   4.855   4.954  0.6636  0.9585 -2.2426
  136OSM   H18U14720  -0.001   4.674   4.989  0.6246 -0.4343 -0.0955
  136OSM    C1F14721   0.143   4.966   3.514 -0.1536  0.8391  0.4857
  136OSM     OF14722   0.040   4.911   3.475 -0.3583  0.8247  0.3328
  136OSM    C2F14723   0.154   5.087   3.595  0.0925 -0.5779 -0.6599
  136OSM    H2F14724   0.144   5.178   3.532 -0.3317 -0.2755 -0.1602
  136OSM    H2G14725   0.261   5.097   3.625  0.0019  0.0065 -0.5027
  136OSM    C3F14726   0.077   5.093   3.728  0.4705 -0.2053 -0.2275
  136OSM    H3F14727  -0.025   5.061   3.699  0.5792 -1.5998  0.8016
  136OSM    H3G14728   0.076   5.192   3.778  0.6785 -0.5366  0.4509
  136OSM    C4F14729   0.110   4.982   3.841 -0.1180 -0.1342 -0.7804
  136OSM    H4F14730   0.132   4.891   3.783 -2.9286 -1.1804 -0.3690
  136OSM    H4G14731   0.019   4.960   3.901  1.5694 -2.1564  1.2044
  136OSM    C5F14732   0.235   5.005   3.923 -0.6464 -1.0145 -0.7977
  136OSM    H5F14733   0.314   5.051   3.859 -0.5579  0.7369  0.4902
  136OSM    H5G14734   0.276   4.913   3.969  1.9560 -0.4154 -1.7547
  136OSM    C6F14735   0.214   5.103   4.041 -0.3297  0.1625 -0.4603
  136OSM    H6F14736   0.197   5.199   3.988 -1.0533  0.5320  0.4060
  136OSM    H6G14737   0.308   5.110   4.100  1.0809 -2.3587 -2.2357
  136OSM    C7F14738   0.095   5.071   4.131  0.3149  0.7069  0.7817
  136OSM    H7F14739   0.105   4.975   4.187  2.6656  0.3365 -0.1497
  136OSM    H7G14740  -0.004   5.074   4.080  0.6540  1.5000  0.1541
  136OSM    C8F14741   0.086   5.186   4.237 -0.9884  0.7040 -0.3741
  136OSM    H8F14742   0.102   5.280   4.180  0.9229  0.7608  0.2037
  136OSM    H8G14743   0.177   5.176   4.300 -0.5104  0.3092 -1.1080
  136OSM    C9F14744  -0.039   5.176   4.332  0.0819 -0.2137 -0.7147
  136OSM    H9F14745  -0.126   5.121   4.294 -1.5603  0.7657  1.3998
  136OSM   C10F14746  -0.034   5.227   4.458 -0.3108  0.3408 -1.0320
  136OSM   H10F14747  -0.119   5.216   4.527  0.2078  0.3433 -0.3741
  136OSM   C11F14748   0.074   5.304   4.530 -0.1019 -0.1372 -0.1892
  136OSM   H11F14749   0.043   5.402   4.573 -2.1655 -0.0978 -1.6095
  136OSM   H11G14750   0.150   5.326   4.452 -1.1774  1.0621 -0.9422
  136OSM   C12F14751   0.135   5.220   4.640  0.5000 -0.0604 -0.6464
  136OSM   H12F14752   0.163   5.119   4.601  2.2334  0.8839 -2.0030
  136OSM   H12G14753   0.071   5.216   4.730  0.8142 -0.8444 -0.4433
  136OSM   C13F14754   0.268   5.278   4.692 -0.4502 -0.9719  0.0703
  136OSM   H13F14755   0.337   5.288   4.606  0.6962 -0.4085  1.0333
  136OSM   H13G14756   0.325   5.206   4.755 -2.4840 -2.1995  0.6096
  136OSM   C14F14757   0.255   5.412   4.761 -0.2506 -0.8427  0.3271
  136OSM   H14F14758   0.183   5.397   4.844 -0.2795 -4.7564 -0.2262
  136OSM   H14G14759   0.218   5.497   4.699  0.6119  0.0741  1.0282
  136OSM   C15F14760   0.383   5.466   4.814 -1.0709 -0.2308  0.0458
  136OSM   H15F14761   0.365   5.572   4.842  0.4100 -0.2781  1.3172
  136OSM   H15G14762   0.465   5.485   4.742  0.4069  1.6651  2.1074
  136OSM   C16F14763   0.440   5.407   4.944  0.8182 -0.5429  0.1643
  136OSM   H16F14764   0.543   5.447   4.951  0.9901 -0.7110 -1.0417
  136OSM   H16G14765   0.434   5.296   4.936  0.2537 -0.9512  4.1391
  136OSM   C17F14766   0.336   5.440   5.063 -0.5395  0.1899  1.0630
  136OSM   H17F14767   0.243   5.381   5.051  1.0019 -2.1862 -0.2518
  136OSM   H17G14768   0.323   5.549   5.048  1.4614  0.2265 -1.1160
  136OSM   C18F14769   0.386   5.422   5.199  0.5884 -0.7113 -0.6153
  136OSM   H18F14770   0.414   5.318   5.228 -0.2971 -0.6128  0.6940
  136OSM   H18G14771   0.304   5.458   5.265  0.9966  0.0383 -0.5030
  136OSM   H18H14772   0.478   5.480   5.222 -0.1146  0.1239  0.1806
  137OSM      N14773   3.952   1.696   3.189 -0.5158  0.0621 -0.7580
  137OSM    C1514774   3.840   1.616   3.124 -1.1020  0.5530  0.0461
  137OSM   H15A14775   3.780   1.563   3.196  1.6555  0.5301  2.5322
  137OSM   H15B14776   3.896   1.548   3.061  1.3138  0.6349  1.9668
  137OSM   H15C14777   3.782   1.669   3.050  1.2986  0.0293 -2.3894
  137OSM    C1414778   4.023   1.773   3.081 -0.0932  0.1502  0.4211
  137OSM   H14A14779   4.062   1.695   3.017 -0.3517 -1.0277  1.6659
  137OSM   H14B14780   4.093   1.845   3.119  0.9441 -0.4642 -0.2717
  137OSM   H14C14781   3.961   1.836   3.018  0.9928  1.7251  0.8697
  137OSM    C1314782   3.889   1.789   3.289  0.4796 -0.0326 -0.4186
  137OSM   H13A14783   3.961   1.846   3.346 -0.0138  0.1300  0.0495
  137OSM   H13B14784   3.842   1.728   3.365  2.3336 -2.5592 -1.1366
  137OSM   H13C14785   3.821   1.856   3.238  1.6390  0.0344 -1.9494
  137OSM    C1214786   4.057   1.613   3.260  0.1654  0.0213 -0.5069
  137OSM   H12A14787   4.145   1.672   3.278 -0.6417  0.7999  1.1167
  137OSM   H12B14788   4.069   1.533   3.188 -1.3872 -1.7359  1.0574
  137OSM    C1114789   4.027   1.541   3.391 -0.6357 -0.0346  0.2506
  137OSM   H11A14790   4.003   1.608   3.476  0.8615 -0.9928  1.4922
  137OSM   H11B14791   4.118   1.489   3.429 -0.2386  0.2469 -0.3119
  137OSM      P14792   3.933   1.316   3.297  0.2572 -0.0742  0.1518
  137OSM    O1314793   3.820   1.290   3.209 -0.1066  0.0745  0.7489
  137OSM    O1414794   4.061   1.301   3.239  0.0268 -0.3252  1.0578
  137OSM    O1114795   3.923   1.209   3.409 -1.0416  0.0033 -0.5246
  137OSM    O1214796   3.912   1.455   3.368 -0.0234 -0.2450 -0.3399
  137OSM    C1S14797   3.878   1.245   3.542 -0.6069  0.0477 -0.4014
  137OSM    H1S14798   3.769   1.227   3.538 -0.6605  0.5403 -1.6561
  137OSM    H1T14799   3.898   1.351   3.571  2.7553 -0.3740 -0.7961
  137OSM     NF14800   3.849   1.177   3.784  0.3792  0.0013 -1.1732
  137OSM    HNF14801   3.868   1.258   3.838  2.5168 -1.4467  0.4107
  137OSM    C2S14802   3.935   1.164   3.662  0.8994 -0.1761  0.1433
  137OSM    H2S14803   3.929   1.059   3.628  0.9510  0.5486 -2.3449
  137OSM    C3S14804   4.090   1.194   3.682  0.0528 -0.2121  0.3042
  137OSM    H3S14805   4.109   1.299   3.713  0.2570 -0.7062  1.9744
  137OSM     O314806   4.178   1.160   3.581  0.7200  0.4337  0.0683
  137OSM    HO314807   4.130   1.136   3.502 -1.5469  1.4707  1.0376
  137OSM    C4S14808   4.130   1.111   3.801 -0.2787  0.1606 -0.2062
  137OSM    H4S14809   4.106   1.004   3.785  0.7075  0.1022 -1.4036
  137OSM    C5S14810   4.213   1.140   3.902 -0.2690 -0.0067 -0.0802
  137OSM    H5S14811   4.267   1.236   3.905  0.2037 -0.2755  0.2885
  137OSM    C6S14812   4.251   1.050   4.011 -0.5995 -0.6605  0.2251
  137OSM    H6S14813   4.361   1.052   4.031 -0.2439  0.1172 -1.6381
  137OSM    H6T14814   4.205   0.950   4.017  0.8801 -1.3732  0.2083
  137OSM    C7S14815   4.194   1.117   4.128  0.1882 -0.3627 -0.8010
  137OSM    H7S14816   4.083   1.115   4.126  0.0172  1.8945  1.1467
  137OSM    H7T14817   4.221   1.224   4.145 -1.9914 -0.1047  1.6315
  137OSM    C8S14818   4.242   1.057   4.265  0.4972 -0.4730 -0.7230
  137OSM    H8S14819   4.353   1.070   4.267  0.7284 -2.1695 -0.9942
  137OSM    H8T14820   4.226   0.948   4.264 -3.6938 -0.0325  0.2601
  137OSM    C9S14821   4.180   1.114   4.396  0.1435 -0.2727 -0.2958
  137OSM    H9S14822   4.069   1.113   4.383  0.1369  0.7757 -0.3667
  137OSM    H9T14823   4.205   1.222   4.401 -1.8072  0.1821  1.1425
  137OSM   C10S14824   4.227   1.040   4.521 -0.2492  0.0260  1.0939
  137OSM   H10S14825   4.334   1.014   4.509 -0.4740 -1.1361  1.4219
  137OSM   H10T14826   4.178   0.940   4.529  0.8818 -1.0975 -3.3866
  137OSM   C11S14827   4.198   1.126   4.641 -0.3601  0.0672 -0.2729
  137OSM   H11S14828   4.093   1.159   4.627 -0.8531 -2.0291 -2.2246
  137OSM   H11T14829   4.268   1.210   4.660 -2.4026  1.8189 -0.1768
  137OSM   C12S14830   4.193   1.039   4.758 -0.6798  0.1369 -0.2165
  137OSM   H12S14831   4.293   0.992   4.760 -1.7618 -2.5036 -2.2488
  137OSM   H12T14832   4.126   0.951   4.753  0.6822 -0.9156 -0.3785
  137OSM   C13S14833   4.161   1.124   4.889 -0.0798 -0.2869  0.2363
  137OSM   H13S14834   4.061   1.171   4.874 -1.6946 -3.1785  1.1320
  137OSM   H13T14835   4.244   1.198   4.894  0.6726 -1.1305  0.3137
  137OSM   C14S14836   4.150   1.035   5.008  0.2169 -0.2792 -0.2987
  137OSM   H14S14837   4.252   0.993   5.024  0.0424 -0.9092 -0.8178
  137OSM   H14T14838   4.090   0.944   4.987  1.0719 -0.6112 -1.4543
  137OSM   C15S14839   4.087   1.111   5.127 -0.1799  0.8327 -0.2709
  137OSM   H15S14840   4.143   1.207   5.131  3.5295 -1.1796 -0.5134
  137OSM   H15T14841   4.107   1.053   5.220  1.7625  1.2017 -0.4232
  137OSM   C16S14842   3.940   1.126   5.097 -1.0119 -1.3342  0.2357
  137OSM   H16S14843   3.908   1.034   5.043  2.7692 -2.0200 -1.1439
  137OSM   H16T14844   3.922   1.215   5.034 -0.0295 -0.6118  0.9431
  137OSM   C17S14845   3.858   1.160   5.221  0.5997  0.6608  0.0309
  137OSM   H17S14846   3.881   1.262   5.257 -0.0525  1.7093 -2.3640
  137OSM   H17T14847   3.866   1.096   5.312 -0.1472  1.2657  0.5297
  137OSM   C18S14848   3.720   1.159   5.171  0.2407 -0.4695 -0.0921
  137OSM   H18S14849   3.643   1.172   5.250  0.8678 -1.8998  0.8002
  137OSM   H18T14850   3.699   1.060   5.124  0.1565 -0.6017  0.2190
  137OSM   H18U14851   3.715   1.242   5.098 -2.1673 -0.6662 -0.2403
  137OSM    C1F14852   3.732   1.100   3.800 -0.6604  0.0803 -0.0026
  137OSM     OF14853   3.695   1.019   3.713  0.4169 -1.1635 -0.2035
  137OSM    C2F14854   3.669   1.144   3.930 -0.5235  0.4996  0.4406
  137OSM    H2F14855   3.627   1.245   3.912  1.2804  1.5869  2.0007
  137OSM    H2G14856   3.747   1.157   4.007  0.5601  1.7641 -0.8102
  137OSM    C3F14857   3.563   1.046   3.968  0.3393 -0.2514  0.1451
  137OSM    H3F14858   3.590   0.940   3.986 -2.7310 -0.9536  1.2285
  137OSM    H3G14859   3.489   1.033   3.886  1.3950 -0.1666 -0.8392
  137OSM    C4F14860   3.475   1.087   4.093 -0.3426 -0.2126 -0.0542
  137OSM    H4F14861   3.376   1.037   4.077 -0.5404  0.3674 -0.6569
  137OSM    H4G14862   3.453   1.196   4.097  0.2239 -0.0869 -0.4262
  137OSM    C5F14863   3.534   1.047   4.225  0.4175  0.3588 -0.1495
  137OSM    H5F14864   3.633   1.098   4.235  1.0435 -0.8736  0.1847
  137OSM    H5G14865   3.547   0.937   4.234  1.1666  0.5568  1.9731
  137OSM    C6F14866   3.442   1.082   4.351 -0.0637 -0.2714  1.0844
  137OSM    H6F14867   3.444   1.006   4.432 -1.6264 -2.3327 -0.6873
  137OSM    H6G14868   3.338   1.079   4.312 -0.2999 -0.3324  1.7053
  137OSM    C7F14869   3.461   1.222   4.420  0.9183  0.5194  0.0726
  137OSM    H7F14870   3.458   1.308   4.351 -1.3786  0.4236 -0.0211
  137OSM    H7G14871   3.566   1.229   4.455  1.3750 -0.8736 -0.9381
  137OSM    C8F14872   3.360   1.236   4.533 -0.3142  0.0047 -0.2173
  137OSM    H8F14873   3.396   1.166   4.612 -0.9860 -0.2060 -0.0916
  137OSM    H8G14874   3.258   1.203   4.504  1.1559 -6.6370  0.5453
  137OSM    C9F14875   3.365   1.376   4.584 -0.1011  0.0895  0.3335
  137OSM    H9F14876   3.350   1.454   4.508 -3.0736 -0.6911  0.0036
  137OSM   C10F14877   3.383   1.418   4.717  0.6432  0.5184 -0.1732
  137OSM   H10F14878   3.363   1.523   4.744 -1.9785  0.6689 -2.2806
  137OSM   C11F14879   3.393   1.327   4.841  0.5068 -0.1044  0.2680
  137OSM   H11F14880   3.456   1.381   4.915  1.6891 -1.9683  0.6761
  137OSM   H11G14881   3.453   1.236   4.823 -2.7508 -2.4269  0.3093
  137OSM   C12F14882   3.259   1.292   4.912 -0.1359 -0.7490 -0.0569
  137OSM   H12F14883   3.199   1.386   4.918 -2.4274 -2.2073  2.2177
  137OSM   H12G14884   3.278   1.265   5.018 -0.5440 -0.3329  0.1254
  137OSM   C13F14885   3.170   1.190   4.842 -0.4210 -0.2064 -0.5682
  137OSM   H13F14886   3.170   1.218   4.734  0.6339  2.0855 -0.0345
  137OSM   H13G14887   3.063   1.203   4.868 -0.8737  2.1361 -3.1352
  137OSM   C14F14888   3.220   1.045   4.856 -0.2487 -0.3396 -0.5259
  137OSM   H14F14889   3.330   1.044   4.840  0.0226 -0.5145  1.0928
  137OSM   H14G14890   3.168   0.982   4.781  0.4071 -0.6609 -0.7188
  137OSM   C15F14891   3.196   0.976   4.989 -0.2535  0.5106 -0.6068
  137OSM   H15F14892   3.263   1.010   5.072 -0.7018  0.7235 -0.3276
  137OSM   H15G14893   3.215   0.869   4.968 -1.5491 -0.2795  1.8492
  137OSM   C16F14894   3.061   0.989   5.050  0.4438  0.7810 -0.5923
  137OSM   H16F14895   2.983   0.956   4.978 -0.2279  0.5698  0.2085
  137OSM   H16G14896   3.041   1.095   5.080  0.2063  0.6222 -0.1735
  137OSM   C17F14897   3.036   0.904   5.179 -0.3050 -0.8565  0.6120
  137OSM   H17F14898   3.072   0.804   5.144  1.2021 -0.3498  0.6437
  137OSM   H17G14899   2.927   0.891   5.196 -0.6605  0.7613 -0.2723
  137OSM   C18F14900   3.101   0.961   5.294 -0.3333 -0.1932 -0.4573
  137OSM   H18F14901   3.140   0.881   5.359 -0.7140  1.8552  2.4799
  137OSM   H18G14902   3.026   1.019   5.353 -0.5659 -1.4730  0.5264
  137OSM   H18H14903   3.197   1.006   5.261 -0.2554 -1.1765 -1.6306
  138OSM      N14904   1.973   1.421   2.759 -0.6643  0.2144  0.4935
  138OSM    C1514905   2.122   1.409   2.741  0.3250  0.7037  0.4510
  138OSM   H15A14906   2.144   1.351   2.652  0.8423 -0.7654  1.4837
  138OSM   H15B14907   2.164   1.375   2.835  0.5132  0.9382  0.4529
  138OSM   H15C14908   2.175   1.501   2.723  3.6592 -0.9035  1.1601
  138OSM    C1414909   1.915   1.489   2.632  0.1989 -0.3685 -0.0398
  138OSM   H14A14910   1.809   1.507   2.643  0.5140  2.6379 -1.0513
  138OSM   H14B14911   1.936   1.421   2.551 -0.6106 -0.4840 -0.1530
  138OSM   H14C14912   1.971   1.579   2.608  0.2752 -0.4494 -0.1664
  138OSM    C1314913   1.906   1.290   2.777  0.1361  0.1167 -0.0695
  138OSM   H13A14914   1.937   1.240   2.867 -0.1484  0.3049  0.1313
  138OSM   H13B14915   1.933   1.227   2.693 -0.3838 -0.8822  0.5018
  138OSM   H13C14916   1.799   1.298   2.778  0.0979 -0.4313  0.4509
  138OSM    C1214917   1.937   1.506   2.879 -0.2882  0.4102  0.0573
  138OSM   H12A14918   1.829   1.513   2.883 -0.4887 -1.9773  0.2504
  138OSM   H12B14919   1.964   1.609   2.862  1.5570 -0.3703 -2.2400
  138OSM    C1114920   1.998   1.474   3.016 -0.1785 -0.0493  0.4707
  138OSM   H11A14921   1.974   1.367   3.037 -0.0117 -0.5249 -1.5675
  138OSM   H11B14922   1.948   1.527   3.100 -1.3629  0.8461 -0.7404
  138OSM      P14923   2.207   1.622   3.023  0.1935  0.0962 -0.3331
  138OSM    O1314924   2.342   1.620   2.967 -0.0013 -0.1206  0.0576
  138OSM    O1414925   2.110   1.725   2.989 -0.5155 -0.0291  0.0776
  138OSM    O1114926   2.227   1.638   3.178  0.1627 -0.0636  0.7760
  138OSM    O1214927   2.133   1.482   3.019 -0.5452  0.1679  0.3151
  138OSM    C1S14928   2.293   1.537   3.259  0.2612 -0.1938  0.0514
  138OSM    H1S14929   2.403   1.537   3.244  0.6313  0.6029  2.3729
  138OSM    H1T14930   2.260   1.437   3.222  1.4813 -0.6255  0.1062
  138OSM     NF14931   2.353   1.484   3.484 -0.0856 -0.6727  0.3179
  138OSM    HNF14932   2.340   1.385   3.483  1.1454 -0.8575  0.6537
  138OSM    C2S14933   2.258   1.556   3.404  0.7148  0.2157  0.1763
  138OSM    H2S14934   2.247   1.662   3.435  1.9215  0.1016  1.0600
  138OSM    C3S14935   2.111   1.507   3.415 -0.5907  0.7628 -0.9017
  138OSM    H3S14936   2.112   1.408   3.365  2.3538  0.2580  0.0009
  138OSM     O314937   2.019   1.599   3.351 -0.2646  0.1753  0.4599
  138OSM    HO314938   2.073   1.675   3.327 -0.4831  0.0765 -0.3688
  138OSM    C4S14939   2.071   1.489   3.559 -0.4852 -0.1243  0.6308
  138OSM    H4S14940   2.079   1.381   3.579  0.2954 -1.1059 -3.8012
  138OSM    C5S14941   2.020   1.583   3.639  0.8705  0.2578 -1.0046
  138OSM    H5S14942   2.005   1.688   3.610 -3.0686 -0.2333 -1.2711
  138OSM    C6S14943   1.963   1.538   3.771  0.3025  0.5488 -0.5631
  138OSM    H6S14944   1.860   1.496   3.767 -0.5730  1.7943  3.6746
  138OSM    H6T14945   1.951   1.620   3.846 -1.1197 -0.7882  0.7611
  138OSM    C7S14946   2.058   1.446   3.849 -0.1764  0.1781 -0.4475
  138OSM    H7S14947   2.156   1.491   3.874 -0.8341  0.2627  2.2794
  138OSM    H7T14948   2.081   1.353   3.792 -0.1809 -0.8664  1.1841
  138OSM    C8S14949   1.996   1.376   3.977 -0.5268 -0.5730  0.3472
  138OSM    H8S14950   2.054   1.281   3.980  1.2127  0.2808 -2.4280
  138OSM    H8T14951   1.892   1.338   3.963 -0.3101 -1.0059 -0.1408
  138OSM    C9S14952   2.014   1.458   4.101  1.0224 -0.0479 -0.6136
  138OSM    H9S14953   1.977   1.560   4.080 -2.0839 -1.0648 -0.6183
  138OSM    H9T14954   2.117   1.481   4.135  0.0666  2.4714  0.7788
  138OSM   C10S14955   1.929   1.392   4.220 -0.8248  0.3813 -0.1107
  138OSM   H10S14956   1.971   1.290   4.231 -0.1410  0.4451 -1.8363
  138OSM   H10T14957   1.829   1.377   4.176  0.8873 -2.6313 -3.4891
  138OSM   C11S14958   1.942   1.462   4.359  0.5952  0.6201  0.2339
  138OSM   H11S14959   1.890   1.560   4.354  0.5167  0.6171  0.9085
  138OSM   H11T14960   2.048   1.489   4.379  1.4997 -0.9484 -1.9972
  138OSM   C12S14961   1.904   1.371   4.475 -0.0736  0.6089  0.7825
  138OSM   H12S14962   1.981   1.292   4.488  0.4203  0.4816 -2.1074
  138OSM   H12T14963   1.809   1.320   4.447 -0.1351  1.7633 -1.3509
  138OSM   C13S14964   1.889   1.431   4.617  0.1198  0.0397  0.4914
  138OSM   H13S14965   1.831   1.525   4.625 -0.6390 -0.3982  0.2383
  138OSM   H13T14966   1.990   1.452   4.657 -0.1146  1.1132  0.5620
  138OSM   C14S14967   1.814   1.338   4.714 -0.1315 -0.2086  0.2862
  138OSM   H14S14968   1.861   1.238   4.717  0.0708 -0.1395 -0.3113
  138OSM   H14T14969   1.712   1.315   4.675 -1.3709 -1.4279  3.8937
  138OSM   C15S14970   1.809   1.388   4.862 -0.4598  0.0541  0.6424
  138OSM   H15S14971   1.724   1.332   4.906 -1.1620  1.0958  0.6439
  138OSM   H15T14972   1.767   1.490   4.860 -0.1532  0.1795 -1.0328
  138OSM   C16S14973   1.940   1.361   4.934  0.4271  0.0204 -0.1290
  138OSM   H16S14974   1.966   1.435   5.013 -0.0208 -0.8606  0.8794
  138OSM   H16T14975   2.021   1.373   4.860  0.5936 -0.8447 -0.0968
  138OSM   C17S14976   1.943   1.228   5.007  0.5358 -0.2083  0.4828
  138OSM   H17S14977   2.046   1.220   5.049  0.9038 -0.2346 -0.3924
  138OSM   H17T14978   1.916   1.145   4.939 -1.1726 -0.7322  1.7388
  138OSM   C18S14979   1.842   1.205   5.127  0.6018 -0.1593  0.2361
  138OSM   H18S14980   1.737   1.235   5.108  0.1109 -0.0532  2.7974
  138OSM   H18T14981   1.874   1.262   5.216  0.6928  0.4019 -0.1467
  138OSM   H18U14982   1.848   1.095   5.145  1.2639 -0.2409 -0.4345
  138OSM    C1F14983   2.467   1.544   3.519 -0.1050  0.0931  0.5453
  138OSM     OF14984   2.484   1.662   3.490  0.1184  0.6906 -0.2870
  138OSM    C2F14985   2.550   1.462   3.608 -0.5471 -0.0409  0.4998
  138OSM    H2F14986   2.500   1.372   3.650  0.2708  0.5992  3.0992
  138OSM    H2G14987   2.575   1.521   3.699  1.5931 -1.0715  0.6490
  138OSM    C3F14988   2.684   1.418   3.557 -0.4927  0.1671 -0.1526
  138OSM    H3F14989   2.738   1.498   3.502  0.3915 -1.3030 -1.4958
  138OSM    H3G14990   2.669   1.335   3.485  1.5669  0.9636 -1.5915
  138OSM    C4F14991   2.776   1.374   3.677 -0.1255  0.1406 -0.3134
  138OSM    H4F14992   2.833   1.280   3.660 -2.4113 -1.7462  1.7142
  138OSM    H4G14993   2.703   1.348   3.757 -1.6910  0.0960 -1.7173
  138OSM    C5F14994   2.864   1.497   3.707 -0.0815 -0.4437 -0.7299
  138OSM    H5F14995   2.797   1.586   3.708 -0.2486 -0.5372 -1.9572
  138OSM    H5G14996   2.934   1.506   3.622  0.8584 -2.1231 -0.1725
  138OSM    C6F14997   2.942   1.486   3.837  0.0311 -0.0812 -0.1577
  138OSM    H6F14998   3.029   1.555   3.837  0.0989 -0.1331  1.2302
  138OSM    H6G14999   2.988   1.389   3.866 -1.9157 -0.5857  1.4608
  138OSM    C7F15000   2.843   1.516   3.951 -0.0288 -0.1158  0.1742
  138OSM    H7F15001   2.765   1.439   3.934  0.7931 -0.8623 -0.2643
  138OSM    H7G15002   2.793   1.615   3.941 -1.0121 -0.7705 -1.9345
  138OSM    C8F15003   2.900   1.484   4.087  0.0334  0.0499 -0.9500
  138OSM    H8F15004   2.945   1.573   4.135 -3.0721  0.5706  1.3063
  138OSM    H8G15005   2.979   1.406   4.080  0.9575  0.9043 -0.2938
  138OSM    C9F15006   2.801   1.428   4.190 -0.4154 -0.1023  0.0085
  138OSM    H9F15007   2.711   1.388   4.141  0.4935 -0.7256 -1.2170
  138OSM   C10F15008   2.819   1.430   4.320 -0.8038  0.4155  0.0464
  138OSM   H10F15009   2.740   1.396   4.388  0.0479 -0.8760  0.4478
  138OSM   C11F15010   2.943   1.493   4.386  0.5072  0.0230 -0.2192
  138OSM   H11F15011   2.956   1.595   4.344 -0.8538  0.6021  0.6868
  138OSM   H11G15012   3.033   1.428   4.388  1.5655  1.4701  0.5780
  138OSM   C12F15013   2.908   1.514   4.535  0.2879 -0.1534  0.3859
  138OSM   H12F15014   2.888   1.417   4.586 -1.1270 -0.6604 -1.0347
  138OSM   H12G15015   2.816   1.576   4.536 -0.4362 -1.1895  1.0248
  138OSM   C13F15016   3.014   1.580   4.621  0.2754 -0.2891 -0.2365
  138OSM   H13F15017   2.995   1.689   4.613 -2.0965 -0.7500 -1.7919
  138OSM   H13G15018   3.113   1.555   4.576  1.0552  0.9389  0.7302
  138OSM   C14F15019   2.997   1.540   4.768 -0.6917 -0.0702  0.6701
  138OSM   H14F15020   3.084   1.573   4.829  1.9098 -0.8574 -2.3859
  138OSM   H14G15021   3.023   1.433   4.762 -0.6368 -0.0716  0.9311
  138OSM   C15F15022   2.866   1.573   4.826  0.0262  0.2337  0.0789
  138OSM   H15F15023   2.780   1.535   4.766 -1.0714  0.2221  1.6078
  138OSM   H15G15024   2.863   1.684   4.823  0.2839  0.2696 -3.6455
  138OSM   C16F15025   2.866   1.517   4.969 -0.2389  0.0663 -0.5292
  138OSM   H16F15026   2.958   1.556   5.017 -0.0025 -1.1844  0.0773
  138OSM   H16G15027   2.861   1.406   4.968  0.0960  0.0520 -0.7283
  138OSM   C17F15028   2.746   1.564   5.045  0.2953  0.1401  0.1794
  138OSM   H17F15029   2.649   1.542   4.994  0.2655  0.3488  0.1440
  138OSM   H17G15030   2.746   1.675   5.043  3.3726  0.2662 -3.1766
  138OSM   C18F15031   2.745   1.516   5.198 -0.5425 -1.2877  0.8756
  138OSM   H18F15032   2.847   1.532   5.239 -0.3326  0.9987 -0.3603
  138OSM   H18G15033   2.718   1.409   5.211  0.1953 -1.8640 -1.7641
  138OSM   H18H15034   2.668   1.574   5.254 -0.8693  2.6734 -3.1147
  139OSM      N15035   3.540   5.515   3.233  1.0037 -1.0313 -0.4648
  139OSM    C1515036   3.607   5.560   3.105  0.3784 -0.3319 -0.0684
  139OSM   H15A15037   3.651   5.479   3.048  0.6801 -0.8341  0.8501
  139OSM   H15B15038   3.684   5.632   3.131  0.0531 -0.3044  0.8708
  139OSM   H15C15039   3.529   5.608   3.047 -1.5132 -2.3601  0.6628
  139OSM    C1415040   3.420   5.444   3.177  0.3768 -0.6589 -0.4230
  139OSM   H14A15041   3.348   5.420   3.255 -1.6615 -0.2551 -2.0878
  139OSM   H14B15042   3.451   5.358   3.120  2.1451 -0.7539  0.5999
  139OSM   H14C15043   3.374   5.504   3.100  1.7428 -0.6047 -1.2229
  139OSM    C1315044   3.620   5.410   3.310 -0.2302  0.0462 -0.3368
  139OSM   H13A15045   3.702   5.453   3.365 -1.1437 -0.6148  1.6318
  139OSM   H13B15046   3.658   5.338   3.239 -2.0116  1.0761 -2.4646
  139OSM   H13C15047   3.561   5.351   3.378 -3.0334  1.4984 -1.3328
  139OSM    C1215048   3.493   5.639   3.319 -0.4149  0.5743 -0.3291
  139OSM   H12A15049   3.585   5.683   3.356  0.9501 -2.7280  0.5917
  139OSM   H12B15050   3.451   5.596   3.409  0.4738 -0.6889 -0.4910
  139OSM    C1115051   3.409   5.751   3.261  0.0373  0.0443  0.2004
  139OSM   H11A15052   3.377   5.817   3.344  0.8373 -1.7745  2.0158
  139OSM   H11B15053   3.314   5.707   3.222  0.2021 -0.7219  0.6470
  139OSM      P15054   3.511   5.960   3.150 -0.7719 -0.0930 -0.0459
  139OSM    O1315055   3.638   5.982   3.073 -0.3197  0.2271 -0.3247
  139OSM    O1415056   3.392   6.045   3.116  0.5660 -0.2470  0.5264
  139OSM    O1115057   3.549   5.982   3.302 -0.4912 -0.2792  0.1514
  139OSM    O1215058   3.471   5.807   3.146  0.1400 -0.1713  0.4184
  139OSM    C1S15059   3.605   6.100   3.362 -0.1303 -0.4057 -0.8524
  139OSM    H1S15060   3.546   6.193   3.347  0.9099  0.5226  0.4516
  139OSM    H1T15061   3.706   6.128   3.322 -0.1672  3.0091  0.9904
  139OSM     NF15062   3.612   6.206   3.589 -0.2486  0.0961  0.1383
  139OSM    HNF15063   3.702   6.206   3.633 -0.5907  0.1521  0.8594
  139OSM    C2S15064   3.598   6.082   3.511  0.0140  0.4684 -0.6045
  139OSM    H2S15065   3.496   6.046   3.537  0.4711  0.3644  1.1664
  139OSM    C3S15066   3.692   5.963   3.561 -0.4764 -0.2031  0.1440
  139OSM    H3S15067   3.799   5.986   3.546 -0.1331 -0.3364  2.0413
  139OSM     O315068   3.654   5.837   3.504 -0.1418 -1.1806  0.4992
  139OSM    HO315069   3.597   5.866   3.432 -1.0526  0.9301  1.9758
  139OSM    C4S15070   3.681   5.949   3.718  0.0969  0.7339  0.4546
  139OSM    H4S15071   3.577   5.937   3.750 -0.8810  1.2147 -2.2390
  139OSM    C5S15072   3.777   5.952   3.810 -0.0313 -0.0202 -1.3159
  139OSM    H5S15073   3.879   5.976   3.777  0.2548  1.5620  0.5163
  139OSM    C6S15074   3.764   5.943   3.960 -0.2111  0.2755 -0.3954
  139OSM    H6S15075   3.828   5.861   3.998 -0.1825  0.1448 -0.7224
  139OSM    H6T15076   3.661   5.911   3.985  0.3116 -2.4519 -1.3489
  139OSM    C7S15077   3.817   6.060   4.037 -0.2279 -0.9482  0.2160
  139OSM    H7S15078   3.763   6.154   4.013  0.8153 -0.1585  0.8261
  139OSM    H7T15079   3.916   6.097   4.002 -0.5324 -0.1200  0.2038
  139OSM    C8S15080   3.837   6.040   4.185  0.1920  0.0107 -0.2040
  139OSM    H8S15081   3.879   6.133   4.229  1.6806 -0.1377 -1.2638
  139OSM    H8T15082   3.910   5.957   4.195  1.0807  0.7783 -0.2003
  139OSM    C9S15083   3.706   6.029   4.272  0.2158 -0.0064  0.1439
  139OSM    H9S15084   3.662   5.927   4.277  1.9128 -0.9419 -2.1663
  139OSM    H9T15085   3.642   6.114   4.240  1.5725  1.3689  0.9323
  139OSM   C10S15086   3.750   6.061   4.416 -0.2415  0.2639 -0.1482
  139OSM   H10S15087   3.803   6.158   4.414  0.9324 -0.3273  0.9710
  139OSM   H10T15088   3.823   5.979   4.433  0.1043  0.6272  0.1393
  139OSM   C11S15089   3.623   6.072   4.509  0.3165  0.2750 -0.2457
  139OSM   H11S15090   3.588   5.968   4.527  1.3066 -0.2563 -1.3162
  139OSM   H11T15091   3.547   6.139   4.465  2.6228  1.8955 -1.9761
  139OSM   C12S15092   3.652   6.134   4.647 -0.2301 -0.7219  0.2889
  139OSM   H12S15093   3.554   6.147   4.697  0.4300  2.7854  0.8933
  139OSM   H12T15094   3.683   6.240   4.640  1.1334 -1.1567 -0.7421
  139OSM   C13S15095   3.765   6.069   4.725 -0.2176  0.1464  0.2619
  139OSM   H13S15096   3.866   6.091   4.684 -0.3142  0.0680 -0.0209
  139OSM   H13T15097   3.756   5.959   4.736  0.6302  0.1242  0.8531
  139OSM   C14S15098   3.768   6.116   4.873 -0.2461  0.1425  0.8013
  139OSM   H14S15099   3.672   6.112   4.929  0.3722  0.6308  1.9414
  139OSM   H14T15100   3.781   6.227   4.876  3.2658 -0.0750 -1.1188
  139OSM   C15S15101   3.887   6.048   4.949 -0.9012 -0.6301  0.8816
  139OSM   H15S15102   3.975   6.084   4.891 -1.7693  1.9226  1.0274
  139OSM   H15T15103   3.881   5.938   4.941 -2.9941 -0.4533 -0.8305
  139OSM   C16S15104   3.913   6.113   5.087  0.0304 -0.4343 -0.3221
  139OSM   H16S15105   3.892   6.222   5.093 -0.6597 -0.6494  2.7330
  139OSM   H16T15106   4.020   6.095   5.109 -0.6089 -2.6806  1.2919
  139OSM   C17S15107   3.820   6.055   5.191 -0.4001 -0.1503 -0.0491
  139OSM   H17S15108   3.844   5.947   5.199 -0.5448 -0.3789 -2.1373
  139OSM   H17T15109   3.717   6.056   5.150 -1.1352  0.1425  1.7280
  139OSM   C18S15110   3.805   6.123   5.325 -0.7223 -0.4619 -0.0608
  139OSM   H18S15111   3.900   6.149   5.376 -0.8921  3.2985 -1.3140
  139OSM   H18T15112   3.734   6.077   5.397 -1.2512  3.1732  2.0034
  139OSM   H18U15113   3.771   6.229   5.320  1.8632  0.3847 -2.0952
  139OSM    C1F15114   3.521   6.305   3.592 -0.4163  0.1490  0.5900
  139OSM     OF15115   3.428   6.308   3.515 -0.4900  0.0586  0.6047
  139OSM    C2F15116   3.549   6.424   3.682 -0.0292 -0.7262  0.1477
  139OSM    H2F15117   3.498   6.513   3.637 -1.3381 -0.0840  2.7040
  139OSM    H2G15118   3.658   6.441   3.666 -0.4502  0.7553 -1.4614
  139OSM    C3F15119   3.496   6.401   3.823  1.0100  0.5088  0.0605
  139OSM    H3F15120   3.558   6.315   3.854 -2.1684 -1.8486  0.4355
  139OSM    H3G15121   3.387   6.378   3.815  0.3532  3.5400 -1.1964
  139OSM    C4F15122   3.514   6.519   3.919  0.5911 -0.1528  0.5268
  139OSM    H4F15123   3.468   6.609   3.874  0.9006 -1.6217 -3.0891
  139OSM    H4G15124   3.625   6.527   3.928  0.4905  1.0770  0.8694
  139OSM    C5F15125   3.484   6.479   4.058  1.3173  0.4440 -0.1444
  139OSM    H5F15126   3.548   6.392   4.083  1.8291  1.3600  2.0625
  139OSM    H5G15127   3.377   6.459   4.076  1.1710  1.8661  0.7949
  139OSM    C6F15128   3.521   6.590   4.164 -0.4805 -0.3058  0.6573
  139OSM    H6F15129   3.490   6.688   4.121 -0.2866 -0.5110  0.0429
  139OSM    H6G15130   3.630   6.595   4.184 -0.6647 -1.0686  1.9693
  139OSM    C7F15131   3.444   6.581   4.296  1.0494 -0.1392  0.3039
  139OSM    H7F15132   3.338   6.552   4.275  1.1818  1.1689 -2.5775
  139OSM    H7G15133   3.435   6.681   4.343 -0.6136 -0.0570 -0.1046
  139OSM    C8F15134   3.487   6.473   4.396 -0.0605 -0.6168  0.0883
  139OSM    H8F15135   3.595   6.489   4.411 -0.2059  1.3721 -0.6716
  139OSM    H8G15136   3.467   6.384   4.333  0.8126 -0.5439 -0.2974
  139OSM    C9F15137   3.412   6.484   4.523 -0.9146  0.2505  0.3787
  139OSM    H9F15138   3.318   6.428   4.518 -1.3610  1.0071  0.0002
  139OSM   C10F15139   3.440   6.547   4.636 -1.0704 -0.4333 -0.0109
  139OSM   H10F15140   3.387   6.530   4.731  0.7363  2.8353  1.7676
  139OSM   C11F15141   3.569   6.620   4.671 -1.1291 -0.3579  0.0991
  139OSM   H11F15142   3.537   6.719   4.707 -0.2968 -0.8025  2.2017
  139OSM   H11G15143   3.641   6.644   4.589  0.9970 -0.8447  1.7253
  139OSM   C12F15144   3.658   6.560   4.786 -0.5999  0.0414  0.6980
  139OSM   H12F15145   3.762   6.576   4.750 -0.2416 -0.5134  1.4565
  139OSM   H12G15146   3.642   6.450   4.777  2.7831 -0.4566 -1.3370
  139OSM   C13F15147   3.626   6.624   4.920 -0.2159  0.1490  0.1903
  139OSM   H13F15148   3.517   6.624   4.937 -0.1992  1.6546  0.4010
  139OSM   H13G15149   3.658   6.730   4.914  0.6843  0.1328  3.3136
  139OSM   C14F15150   3.698   6.568   5.048 -0.5357 -0.3773  0.2268
  139OSM   H14F15151   3.794   6.536   5.002  0.5859  2.0083  0.7304
  139OSM   H14G15152   3.660   6.466   5.071  2.1000 -1.7371 -0.9582
  139OSM   C15F15153   3.709   6.661   5.170  0.6983 -0.0546  0.7743
  139OSM   H15F15154   3.607   6.695   5.199 -0.4054 -2.6543  0.2264
  139OSM   H15G15155   3.772   6.750   5.148  3.0682 -1.4663  1.4801
  139OSM   C16F15156   3.769   6.583   5.289  0.4856  0.0895  0.1608
  139OSM   H16F15157   3.879   6.569   5.277  0.4897  0.1088  0.1738
  139OSM   H16G15158   3.715   6.487   5.290  0.2048  0.2390 -0.5192
  139OSM   C17F15159   3.747   6.655   5.419  0.4155 -0.1275  0.0543
  139OSM   H17F15160   3.761   6.589   5.508  0.3308  0.6489  0.6485
  139OSM   H17G15161   3.645   6.698   5.423 -0.1147 -0.8604 -2.9097
  139OSM   C18F15162   3.837   6.775   5.443 -0.6123 -1.0076  0.1141
  139OSM   H18F15163   3.825   6.844   5.358  0.6873 -1.2872 -0.3173
  139OSM   H18G15164   3.943   6.742   5.446  0.5245  1.9597 -2.5847
  139OSM   H18H15165   3.805   6.825   5.537 -2.8678 -1.1303 -0.5343
  140OSM      N15166   2.659   4.441   3.473 -0.0961 -0.2048 -0.4277
  140OSM    C1515167   2.673   4.590   3.474  0.3109 -0.4869 -0.1981
  140OSM   H15A15168   2.582   4.633   3.435  0.5739  1.2284  0.9693
  140OSM   H15B15169   2.753   4.625   3.411 -0.1401 -0.2248 -0.6356
  140OSM   H15C15170   2.674   4.633   3.573 -0.5098 -0.8106 -0.0365
  140OSM    C1415171   2.685   4.384   3.339 -0.0358 -0.6823  0.4828
  140OSM   H14A15172   2.775   4.426   3.296 -1.6314  2.2586 -0.3064
  140OSM   H14B15173   2.598   4.404   3.278  0.5194  0.5503  0.0577
  140OSM   H14C15174   2.692   4.277   3.338 -0.0246 -0.6881  0.9117
  140OSM    C1315175   2.746   4.379   3.583 -0.5354 -0.0436  0.1129
  140OSM   H13A15176   2.739   4.271   3.583 -0.4408 -0.0704 -1.3113
  140OSM   H13B15177   2.710   4.404   3.682  1.1875 -0.4631  0.8878
  140OSM   H13C15178   2.853   4.395   3.584 -0.7206  1.2944  0.9953
  140OSM    C1215179   2.517   4.419   3.495  0.2254  0.1923  0.1123
  140OSM   H12A15180   2.454   4.477   3.430 -0.6967  2.2959  2.6928
  140OSM   H12B15181   2.490   4.437   3.598 -1.8995  0.4971 -0.4431
  140OSM    C1115182   2.458   4.270   3.474  0.3122  0.3931 -0.5275
  140OSM   H11A15183   2.375   4.250   3.545  2.0101 -0.7607  1.2521
  140OSM   H11B15184   2.535   4.197   3.506 -0.8351 -0.8604 -0.5341
  140OSM      P15185   2.306   4.319   3.271  0.0952  0.2674 -0.2451
  140OSM    O1315186   2.353   4.457   3.251 -0.9860  0.2241  0.0418
  140OSM    O1415187   2.265   4.246   3.152  0.1091  0.2903 -0.1715
  140OSM    O1115188   2.199   4.315   3.386 -0.1263  0.0342 -0.5460
  140OSM    O1215189   2.428   4.241   3.333 -0.3254  0.1198 -0.3729
  140OSM    C1S15190   2.084   4.229   3.397  0.2936  0.4095  0.5775
  140OSM    H1S15191   2.083   4.145   3.325 -1.3612  1.0543 -0.2238
  140OSM    H1T15192   2.000   4.288   3.353 -1.0529 -1.9423 -0.1974
  140OSM     NF15193   1.936   4.079   3.523  0.1046  0.4891  0.8264
  140OSM    HNF15194   1.847   4.112   3.493  1.5984  2.3869 -1.9458
  140OSM    C2S15195   2.040   4.177   3.533 -0.6066  0.5299 -0.2255
  140OSM    H2S15196   2.128   4.123   3.575 -0.0652 -0.2409 -2.2613
  140OSM    C3S15197   2.006   4.293   3.635 -0.1622 -0.7448 -0.1131
  140OSM    H3S15198   1.913   4.345   3.604  1.5194  0.9689 -2.7158
  140OSM     O315199   2.096   4.399   3.625 -0.4968 -0.1125  0.9535
  140OSM    HO315200   2.137   4.370   3.543  0.0763 -0.6292  1.4195
  140OSM    C4S15201   2.003   4.237   3.780  0.2278  0.4114  0.0393
  140OSM    H4S15202   1.897   4.244   3.810 -0.2381 -1.6179 -0.9679
  140OSM    C5S15203   2.085   4.177   3.866  0.1888  0.2242 -0.1792
  140OSM    H5S15204   2.192   4.170   3.839 -0.1933  2.1645 -2.5077
  140OSM    C6S15205   2.040   4.120   4.000  0.0727  0.2628 -0.9205
  140OSM    H6S15206   2.129   4.077   4.051 -0.1949  2.1469  1.2879
  140OSM    H6T15207   1.974   4.030   3.999  1.2293 -0.7254  1.7914
  140OSM    C7S15208   1.987   4.235   4.090 -0.7619  0.0827  0.4609
  140OSM    H7S15209   1.899   4.282   4.041  1.1292  1.7124 -1.6190
  140OSM    H7T15210   2.063   4.314   4.105 -1.9169  0.8489  2.7780
  140OSM    C8S15211   1.953   4.181   4.234 -0.6801 -0.1411 -0.0089
  140OSM    H8S15212   2.048   4.150   4.284  1.0273  1.3785 -2.1128
  140OSM    H8T15213   1.900   4.084   4.223  0.3325 -0.5394 -1.6832
  140OSM    C9S15214   1.858   4.272   4.307 -0.2296 -0.6468 -0.0260
  140OSM    H9S15215   1.766   4.286   4.245 -0.8528  1.6498  1.3009
  140OSM    H9T15216   1.899   4.375   4.319  0.9751 -1.2966  1.7564
  140OSM   C10S15217   1.814   4.213   4.443 -0.0986 -0.4644 -0.0051
  140OSM   H10S15218   1.902   4.203   4.510  0.9069  0.0371 -1.2183
  140OSM   H10T15219   1.786   4.107   4.425 -0.6226 -0.2012 -0.7759
  140OSM   C11S15220   1.705   4.296   4.513  0.0022 -0.7698 -0.2718
  140OSM   H11S15221   1.626   4.295   4.436  0.8350  1.4809 -1.2402
  140OSM   H11T15222   1.735   4.400   4.537 -0.3761 -0.5317 -0.8269
  140OSM   C12S15223   1.654   4.242   4.647 -0.7252 -0.7969  0.2667
  140OSM   H12S15224   1.707   4.302   4.723 -0.5070 -1.5723  0.7437
  140OSM   H12T15225   1.688   4.136   4.644  1.2156 -0.3764  3.1099
  140OSM   C13S15226   1.505   4.266   4.676  0.7673 -0.5752 -0.0949
  140OSM   H13S15227   1.438   4.222   4.599  0.9381  0.7789 -1.0502
  140OSM   H13T15228   1.488   4.376   4.680 -0.8402 -0.7563 -0.8351
  140OSM   C14S15229   1.473   4.208   4.812  0.3429 -0.1605 -0.4074
  140OSM   H14S15230   1.536   4.121   4.837  0.0712 -0.0861  0.6135
  140OSM   H14T15231   1.367   4.175   4.825  1.2331 -2.1155  4.0384
  140OSM   C15S15232   1.506   4.303   4.928 -0.3410  0.2110  0.8493
  140OSM   H15S15233   1.433   4.388   4.929 -2.0675 -1.1707 -0.5899
  140OSM   H15T15234   1.607   4.346   4.914 -0.7625  1.1040  0.4366
  140OSM   C16S15235   1.500   4.245   5.067 -0.0266 -0.4580  0.0251
  140OSM   H16S15236   1.567   4.157   5.080 -1.8195 -1.9427 -0.3422
  140OSM   H16T15237   1.398   4.202   5.080 -0.6902  0.5888 -1.3958
  140OSM   C17S15238   1.535   4.338   5.188  0.6570 -0.4149  0.4112
  140OSM   H17S15239   1.635   4.377   5.159  0.7676 -1.7580 -1.1286
  140OSM   H17T15240   1.547   4.281   5.282 -3.7884  1.0849  2.1434
  140OSM   C18S15241   1.430   4.455   5.206  0.5681  0.3012  0.9030
  140OSM   H18S15242   1.475   4.504   5.294  1.7676  0.9295 -0.0302
  140OSM   H18T15243   1.329   4.409   5.218 -0.2544  2.3339  2.2269
  140OSM   H18U15244   1.428   4.520   5.115 -1.8687 -0.1087  0.6025
  140OSM    C1F15245   1.963   3.953   3.503 -0.4939 -0.3880  0.9566
  140OSM     OF15246   2.081   3.919   3.500  0.2553  0.0837 -0.1115
  140OSM    C2F15247   1.850   3.856   3.483  0.1790 -0.3181 -0.5720
  140OSM    H2F15248   1.886   3.756   3.517 -1.9748 -0.5940  1.1111
  140OSM    H2G15249   1.824   3.843   3.376 -0.7620 -2.3056 -0.1684
  140OSM    C3F15250   1.718   3.883   3.565 -0.4296 -0.0174 -0.5648
  140OSM    H3F15251   1.669   3.977   3.532  0.5576 -0.0853 -2.3096
  140OSM    H3G15252   1.734   3.890   3.675 -0.6055  0.4069 -0.5648
  140OSM    C4F15253   1.605   3.771   3.550 -0.5928 -0.5137 -0.1202
  140OSM    H4F15254   1.617   3.743   3.443  1.8787 -0.8274  0.1740
  140OSM    H4G15255   1.510   3.818   3.583  1.1568  4.3906 -1.1492
  140OSM    C5F15256   1.645   3.643   3.629  0.0650 -0.6371 -0.2248
  140OSM    H5F15257   1.753   3.618   3.618  0.1087 -0.6330  0.1889
  140OSM    H5G15258   1.581   3.554   3.606 -0.8645 -0.5242  1.7374
  140OSM    C6F15259   1.616   3.658   3.777 -0.0799  0.1026 -0.4009
  140OSM    H6F15260   1.633   3.763   3.808  0.2065  0.2656 -1.0823
  140OSM    H6G15261   1.686   3.589   3.829  0.6138  0.4563 -0.8519
  140OSM    C7F15262   1.471   3.638   3.829  0.0757  0.4935  0.6620
  140OSM    H7F15263   1.458   3.532   3.859 -1.1418  1.1368  2.6488
  140OSM    H7G15264   1.403   3.654   3.743  0.3823  0.3453  0.3869
  140OSM    C8F15265   1.434   3.724   3.949 -0.0800 -0.0688  0.4665
  140OSM    H8F15266   1.401   3.824   3.913  0.9010  0.4876  1.0566
  140OSM    H8G15267   1.518   3.733   4.022 -1.0369 -2.0027  1.9098
  140OSM    C9F15268   1.318   3.666   4.030 -0.3349  0.3500  0.3517
  140OSM    H9F15269   1.219   3.659   3.984 -1.0345 -0.2033  1.8524
  140OSM   C10F15270   1.320   3.633   4.154  0.2549 -0.1444  0.3615
  140OSM   H10F15271   1.222   3.616   4.200  0.0376  0.2990  0.0672
  140OSM   C11F15272   1.443   3.645   4.235 -0.1540 -0.8534  0.0902
  140OSM   H11F15273   1.487   3.747   4.232  1.0507 -1.3563  0.0175
  140OSM   H11G15274   1.533   3.590   4.200 -0.2396  0.0861 -1.7163
  140OSM   C12F15275   1.417   3.614   4.384  0.3423  0.2495  0.7166
  140OSM   H12F15276   1.399   3.505   4.389 -1.4751  0.0139 -4.9786
  140OSM   H12G15277   1.333   3.678   4.421  1.7013  1.0041  2.7132
  140OSM   C13F15278   1.537   3.661   4.470 -0.1016  0.7192 -0.2743
  140OSM   H13F15279   1.534   3.772   4.461 -0.9121  0.6762 -0.6145
  140OSM   H13G15280   1.628   3.627   4.416  0.6089 -0.6272  1.6581
  140OSM   C14F15281   1.550   3.606   4.614 -0.0655 -0.5919  0.1343
  140OSM   H14F15282   1.652   3.628   4.653 -1.0302  3.0371  0.8992
  140OSM   H14G15283   1.554   3.495   4.610  0.1534 -0.5543 -0.9285
  140OSM   C15F15284   1.446   3.650   4.713  0.3201 -0.5973 -0.2495
  140OSM   H15F15285   1.352   3.622   4.660 -0.3495  2.2701 -0.7576
  140OSM   H15G15286   1.440   3.759   4.736 -2.6574 -0.5652 -0.7559
  140OSM   C16F15287   1.448   3.568   4.841  0.5437 -0.2287 -0.0822
  140OSM   H16F15288   1.483   3.466   4.815 -0.5506 -0.1455 -2.1445
  140OSM   H16G15289   1.346   3.557   4.885 -1.3882  2.8541 -3.2043
  140OSM   C17F15290   1.548   3.618   4.943  0.4024  0.3555  0.7570
  140OSM   H17F15291   1.525   3.727   4.954  0.7978  0.6858 -1.2822
  140OSM   H17G15292   1.647   3.605   4.895  0.1166 -0.5916  0.4166
  140OSM   C18F15293   1.540   3.536   5.077  0.2813 -0.0827 -0.4750
  140OSM   H18F15294   1.436   3.545   5.115 -0.2252  1.3828 -2.0796
  140OSM   H18G15295   1.616   3.581   5.144  0.0369 -0.9100  0.3723
  140OSM   H18H15296   1.564   3.428   5.069  1.7709  0.0789  1.1977
  141OSM      N15297   5.041   1.014   3.365  0.7403  0.3874 -0.2587
  141OSM    C1515298   5.026   1.113   3.478  1.4767 -0.2028  0.0043
  141OSM   H15A15299   5.103   1.110   3.554  2.5514 -0.8528 -1.0686
  141OSM   H15B15300   4.931   1.098   3.526  0.0212 -2.1031 -3.1196
  141OSM   H15C15301   5.010   1.208   3.430  0.3347  0.0748  0.9115
  141OSM    C1415302   4.933   1.027   3.264 -0.2049 -0.0583 -0.8221
  141OSM   H14A15303   4.946   1.125   3.223  0.6757 -0.6736 -2.0761
  141OSM   H14B15304   4.835   1.011   3.306 -0.0303  0.5942 -0.1370
  141OSM   H14C15305   4.952   0.950   3.190  1.3450  0.5683 -1.1101
  141OSM    C1315306   5.175   1.051   3.296 -0.2223  0.4479 -0.2045
  141OSM   H13A15307   5.253   1.000   3.351  1.0510 -0.0000 -2.2730
  141OSM   H13B15308   5.192   1.157   3.293 -0.5941  0.6633  2.8360
  141OSM   H13C15309   5.172   1.008   3.197 -0.1133 -0.9814  0.3889
  141OSM    C1215310   5.050   0.869   3.414  0.3170 -0.1087 -0.6583
  141OSM   H12A15311   4.953   0.826   3.434  1.1137 -1.8413 -0.3305
  141OSM   H12B15312   5.119   0.868   3.496  0.3718  2.1749 -0.6154
  141OSM    C1115313   5.105   0.765   3.312  0.1144  0.2510  0.4258
  141OSM   H11A15314   5.110   0.666   3.361 -1.9590  0.1412  0.4973
  141OSM   H11B15315   5.214   0.784   3.294  1.1544 -2.9151  2.5118
  141OSM      P15316   4.920   0.650   3.170 -0.3591 -0.4627  0.0406
  141OSM    O1315317   4.800   0.727   3.141  0.2373  0.5265  0.4549
  141OSM    O1415318   4.970   0.554   3.068 -0.3790  0.1509  0.4281
  141OSM    O1115319   4.906   0.587   3.313  0.5078  0.5129  0.2940
  141OSM    O1215320   5.036   0.759   3.192  0.8151  0.1141 -0.2753
  141OSM    C1S15321   4.966   0.461   3.354 -0.0089 -0.1813  0.2431
  141OSM    H1S15322   5.071   0.451   3.318 -0.2507 -0.9132 -0.2863
  141OSM    H1T15323   4.917   0.374   3.305 -2.7997  0.4806  1.6374
  141OSM     NF15324   5.029   0.305   3.540 -0.3786 -0.6142  0.2828
  141OSM    HNF15325   5.008   0.213   3.508  2.1750 -0.8132 -1.0227
  141OSM    C2S15326   4.945   0.416   3.504 -0.9425 -0.5468  0.4519
  141OSM    H2S15327   4.977   0.498   3.571  2.5168 -1.8703  0.6247
  141OSM    C3S15328   4.794   0.405   3.542 -0.1349  0.3178 -0.1148
  141OSM    H3S15329   4.754   0.313   3.495 -0.3043 -0.0623  0.7532
  141OSM     O315330   4.712   0.512   3.491 -0.0597 -0.1793 -0.3126
  141OSM    HO315331   4.773   0.555   3.430  1.2682 -0.7052  0.6101
  141OSM    C4S15332   4.768   0.398   3.693 -1.2767 -0.7855  0.0390
  141OSM    H4S15333   4.795   0.294   3.720 -2.4558 -0.6913  1.7666
  141OSM    C5S15334   4.721   0.495   3.781  0.1298  0.3417  0.8248
  141OSM    H5S15335   4.684   0.591   3.743  0.1887  0.1895  0.3751
  141OSM    C6S15336   4.702   0.474   3.930  0.8694  0.1357  0.0477
  141OSM    H6S15337   4.605   0.423   3.945  2.0026 -1.4410  2.6031
  141OSM    H6T15338   4.709   0.577   3.972 -1.2454 -0.4721  2.0557
  141OSM    C7S15339   4.792   0.385   4.011  0.0922 -0.1404  0.0298
  141OSM    H7S15340   4.893   0.428   3.999  0.6206  0.0784  3.9273
  141OSM    H7T15341   4.796   0.282   3.970 -0.4193 -0.5960  1.0961
  141OSM    C8S15342   4.754   0.381   4.160  0.6084  0.0703  0.1638
  141OSM    H8S15343   4.846   0.339   4.207  0.6426  0.2490  0.2564
  141OSM    H8T15344   4.661   0.319   4.162 -1.3596  2.8638  0.6230
  141OSM    C9S15345   4.702   0.509   4.233  0.1063  0.0041 -0.7038
  141OSM    H9S15346   4.615   0.551   4.179 -1.1382  1.4318  2.1702
  141OSM    H9T15347   4.772   0.595   4.234  1.2747 -0.9223 -0.3739
  141OSM   C10S15348   4.674   0.477   4.382 -0.0899 -0.0321 -0.0529
  141OSM   H10S15349   4.632   0.374   4.378 -1.2165  0.4459 -2.2388
  141OSM   H10T15350   4.599   0.550   4.420 -0.1530 -0.8954  1.5801
  141OSM   C11S15351   4.804   0.483   4.457  0.6581 -0.1091  1.0829
  141OSM   H11S15352   4.850   0.579   4.426 -0.6016  0.6712  1.5350
  141OSM   H11T15353   4.862   0.404   4.405 -0.4858  1.5237 -3.0803
  141OSM   C12S15354   4.796   0.469   4.612 -0.1558  0.0260 -0.5135
  141OSM   H12S15355   4.795   0.363   4.646  0.4434  0.3430  0.5268
  141OSM   H12T15356   4.711   0.524   4.658  0.9640 -0.3073  2.1056
  141OSM   C13S15357   4.917   0.536   4.681  0.0977 -0.2711  0.4993
  141OSM   H13S15358   4.919   0.642   4.648 -2.1960 -0.2086  0.4223
  141OSM   H13T15359   5.011   0.490   4.643  1.2696  1.1386  1.5695
  141OSM   C14S15360   4.900   0.552   4.838 -0.1120 -0.0050  0.0333
  141OSM   H14S15361   4.994   0.602   4.870  0.1632 -2.3863  3.5707
  141OSM   H14T15362   4.896   0.453   4.889 -1.7802 -0.7905 -1.4837
  141OSM   C15S15363   4.775   0.640   4.878  0.2790 -0.4921 -0.6176
  141OSM   H15S15364   4.680   0.583   4.873 -0.6114  0.9930 -1.9152
  141OSM   H15T15365   4.775   0.728   4.809 -1.8994 -0.7506 -1.0238
  141OSM   C16S15366   4.785   0.702   5.016  0.0617  0.0789 -0.0891
  141OSM   H16S15367   4.692   0.761   5.027  1.3514  2.2836 -0.4822
  141OSM   H16T15368   4.873   0.769   5.027  0.2332 -0.4647  2.3660
  141OSM   C17S15369   4.788   0.599   5.137 -0.4794  0.3742 -0.0998
  141OSM   H17S15370   4.868   0.524   5.119  0.4716  1.4704 -0.5710
  141OSM   H17T15371   4.691   0.545   5.138  0.5184 -1.5311  1.6897
  141OSM   C18S15372   4.830   0.660   5.271 -0.1841 -0.2338  0.2008
  141OSM   H18S15373   4.863   0.577   5.337  0.5027 -0.5716 -0.5463
  141OSM   H18T15374   4.745   0.714   5.318 -0.4927 -0.1383 -0.4591
  141OSM   H18U15375   4.909   0.736   5.254 -1.4823  0.8870 -1.0272
  141OSM    C1F15376   5.156   0.326   3.585  0.0221  0.6208 -0.1139
  141OSM     OF15377   5.194   0.442   3.607  0.2173  0.6472  0.3255
  141OSM    C2F15378   5.236   0.201   3.617 -0.6243  1.6375 -0.2811
  141OSM    H2F15379   5.226   0.125   3.536 -0.6695  1.2984  0.0387
  141OSM    H2G15380   5.196   0.150   3.707 -0.1760  3.4386  0.9874
  141OSM    C3F15381   5.381   0.225   3.644  0.6654 -0.0727  0.2375
  141OSM    H3F15382   5.391   0.304   3.722  0.6801 -0.7828  0.9695
  141OSM    H3G15383   5.431   0.267   3.554  1.0993 -1.1263 -0.0292
  141OSM    C4F15384   5.468   0.100   3.674 -0.1716  0.4033  0.3757
  141OSM    H4F15385   5.567   0.143   3.700 -0.3427 -0.0023  1.7609
  141OSM    H4G15386   5.466   0.038   3.582 -1.3322 -0.5330  1.0043
  141OSM    C5F15387   5.410   0.001   3.782  0.2138  0.2321  0.3079
  141OSM    H5F15388   5.461  -0.097   3.781 -2.2309 -1.1414 -1.2790
  141OSM    H5G15389   5.304  -0.030   3.766  1.4897 -3.3134 -2.5536
  141OSM    C6F15390   5.413   0.076   3.919  0.4769  0.0450  0.3155
  141OSM    H6F15391   5.333   0.153   3.914  0.3320 -0.1564 -0.8860
  141OSM    H6G15392   5.517   0.112   3.937  0.9146 -1.0877  0.1493
  141OSM    C7F15393   5.378  -0.030   4.022 -0.0548 -0.0587 -0.0517
  141OSM    H7F15394   5.432  -0.127   4.020 -1.4968 -0.8839 -0.9056
  141OSM    H7G15395   5.275  -0.067   4.003 -0.6562  1.0654  0.8649
  141OSM    C8F15396   5.387   0.021   4.164  0.3036 -1.1174  0.2135
  141OSM    H8F15397   5.484   0.073   4.178  0.0303  0.4627 -2.8835
  141OSM    H8G15398   5.388  -0.064   4.236  0.6317  0.2342  1.8491
  141OSM    C9F15399   5.272   0.116   4.209  0.0924  0.0561 -0.1477
  141OSM    H9F15400   5.176   0.102   4.157 -0.3506  2.3370 -0.0626
  141OSM   C10F15401   5.282   0.233   4.282  0.5140  0.6761 -0.6061
  141OSM   H10F15402   5.196   0.294   4.314  0.3092 -1.0268  2.4403
  141OSM   C11F15403   5.406   0.288   4.351  0.2780 -0.3459  0.4767
  141OSM   H11F15404   5.441   0.384   4.307 -0.2204  0.5802  2.0061
  141OSM   H11G15405   5.491   0.221   4.329  1.4353  1.3037 -0.3430
  141OSM   C12F15406   5.413   0.294   4.501  0.1712 -0.1636 -0.2917
  141OSM   H12F15407   5.326   0.350   4.540  0.1655  0.9858 -1.8479
  141OSM   H12G15408   5.500   0.357   4.528  0.1123  0.2305 -0.9925
  141OSM   C13F15409   5.401   0.162   4.569 -0.1608  0.2536 -0.0106
  141OSM   H13F15410   5.461   0.083   4.519  0.2425  1.3259 -1.2812
  141OSM   H13G15411   5.295   0.128   4.565  0.0235 -0.3123 -0.2436
  141OSM   C14F15412   5.437   0.160   4.719 -0.6167  0.0173  0.6185
  141OSM   H14F15413   5.386   0.248   4.763  0.6476  1.3372 -0.4698
  141OSM   H14G15414   5.546   0.167   4.736 -0.3965 -1.4067  0.0202
  141OSM   C15F15415   5.384   0.035   4.797 -0.0123  0.3410 -0.0484
  141OSM   H15F15416   5.404  -0.063   4.748 -1.2163 -1.2362  2.4008
  141OSM   H15G15417   5.274   0.043   4.795 -0.0011  0.4912 -0.0518
  141OSM   C16F15418   5.417   0.041   4.944  0.0617 -0.2425 -0.2118
  141OSM   H16F15419   5.347   0.109   4.998  0.2704  0.4211 -0.7580
  141OSM   H16G15420   5.520   0.072   4.971  1.3407 -3.7315 -0.5496
  141OSM   C17F15421   5.417  -0.104   4.998 -0.3387  0.3969  0.1891
  141OSM   H17F15422   5.480  -0.179   4.945 -2.0432 -0.3465 -0.8672
  141OSM   H17G15423   5.318  -0.149   4.978 -0.7627  0.9901  0.9178
  141OSM   C18F15424   5.450  -0.099   5.143  0.1125 -0.7070  0.2248
  141OSM   H18F15425   5.412  -0.184   5.204 -0.5239 -2.0840 -1.9441
  141OSM   H18G15426   5.410  -0.004   5.184  0.9340  0.0499 -0.6780
  141OSM   H18H15427   5.560  -0.089   5.146 -0.0297  1.1270  0.1899
  142OSM      N15428   5.037   2.958   3.008 -0.3177  0.3952  0.6772
  142OSM    C1515429   4.936   3.039   2.940  0.9772  0.0232 -0.1621
  142OSM   H15A15430   4.968   3.142   2.938  0.9395  0.1077  1.6461
  142OSM   H15B15431   4.840   3.049   2.989  0.2432 -2.3538 -0.9974
  142OSM   H15C15432   4.906   3.008   2.841 -1.5964  0.9098  0.2622
  142OSM    C1415433   5.016   2.812   2.986 -0.6760 -0.1294 -0.0481
  142OSM   H14A15434   5.098   2.761   3.033  0.8715  1.2955 -1.0814
  142OSM   H14B15435   5.009   2.779   2.883 -1.0279 -0.4959  0.0931
  142OSM   H14C15436   4.927   2.780   3.038 -1.3997  1.7977 -0.0256
  142OSM    C1315437   5.176   2.990   2.950  0.0236  0.0869 -0.6661
  142OSM   H13A15438   5.220   2.948   2.861  2.0957 -2.1788  1.2911
  142OSM   H13B15439   5.252   2.958   3.020 -0.7961 -0.1245  0.1400
  142OSM   H13C15440   5.171   3.098   2.938 -1.1365  0.1196  0.0212
  142OSM    C1215441   5.044   2.988   3.159  0.4095 -0.3314 -0.0467
  142OSM   H12A15442   5.065   3.093   3.170  0.5873 -0.4134  0.4688
  142OSM   H12B15443   5.131   2.933   3.193  1.2252 -0.0495 -1.5908
  142OSM    C1115444   4.923   2.951   3.243 -0.0754  0.0454  0.4385
  142OSM   H11A15445   4.940   2.973   3.351  0.1825  0.2275  0.3632
  142OSM   H11B15446   4.904   2.843   3.229  0.1958  0.2496 -1.9588
  142OSM      P15447   4.665   2.977   3.222  0.1613  0.0182 -0.1041
  142OSM    O1315448   4.603   3.100   3.266 -0.1477 -0.4773 -0.8652
  142OSM    O1415449   4.597   2.925   3.101 -0.1880  0.7250 -0.4139
  142OSM    O1115450   4.678   2.874   3.336 -0.7841  0.0637 -0.6366
  142OSM    O1215451   4.810   3.029   3.197 -0.3470  0.0881  0.1746
  142OSM    C1S15452   4.691   2.896   3.480  0.1408 -0.6700  0.7407
  142OSM    H1S15453   4.605   2.953   3.521  1.8421  1.7434  1.1956
  142OSM    H1T15454   4.781   2.957   3.506  0.6083 -1.1920  0.3627
  142OSM     NF15455   4.738   2.821   3.720 -0.5803  0.4226  0.3819
  142OSM    HNF15456   4.832   2.800   3.747 -0.1462  0.1712 -1.2266
  142OSM    C2S15457   4.709   2.773   3.580  0.5441 -0.7377 -0.4157
  142OSM    H2S15458   4.612   2.720   3.591 -0.9315  1.8592 -0.0108
  142OSM    C3S15459   4.798   2.660   3.526  0.1069 -0.9947 -0.4240
  142OSM    H3S15460   4.901   2.696   3.504 -0.3319  0.3825 -0.2692
  142OSM     O315461   4.749   2.604   3.400 -0.1459 -0.3057 -1.4497
  142OSM    HO315462   4.688   2.673   3.374  1.8653  1.5648 -1.4898
  142OSM    C4S15463   4.811   2.549   3.623 -0.5484 -0.2575  0.1159
  142OSM    H4S15464   4.715   2.511   3.660 -0.4712  0.0770  0.6660
  142OSM    C5S15465   4.925   2.487   3.660 -0.1735  0.4753 -0.3677
  142OSM    H5S15466   5.018   2.518   3.609  0.3604 -0.6164 -0.1034
  142OSM    C6S15467   4.946   2.364   3.748 -0.3425 -1.0095  0.3054
  142OSM    H6S15468   5.006   2.289   3.692 -1.5383 -0.3149 -2.0294
  142OSM    H6T15469   4.850   2.308   3.749 -1.7266  1.2301  1.1505
  142OSM    C7S15470   5.007   2.389   3.885  0.2964 -0.1473 -0.5114
  142OSM    H7S15471   4.942   2.450   3.951  0.2479 -0.9660  0.2234
  142OSM    H7T15472   5.095   2.454   3.867  0.0170  1.1955  2.3319
  142OSM    C8S15473   5.030   2.254   3.961  0.2001  0.5087 -0.0255
  142OSM    H8S15474   5.069   2.176   3.891  1.5231 -0.6147  1.8731
  142OSM    H8T15475   4.925   2.228   3.986  0.4639 -1.0384 -0.3842
  142OSM    C9S15476   5.119   2.252   4.088 -0.0354  0.3234  0.6670
  142OSM    H9S15477   5.224   2.259   4.053 -0.1240 -0.8575  0.1408
  142OSM    H9T15478   5.108   2.152   4.134  1.2659 -0.7383 -1.1992
  142OSM   C10S15479   5.085   2.366   4.188 -0.1903  0.7978 -0.3120
  142OSM   H10S15480   4.982   2.340   4.220  0.0660 -2.2864 -1.5952
  142OSM   H10T15481   5.083   2.463   4.134 -1.2508  0.0621 -1.6707
  142OSM   C11S15482   5.181   2.381   4.307  0.4750 -0.3542 -0.2555
  142OSM   H11S15483   5.278   2.429   4.283 -0.3420  1.1527 -0.7026
  142OSM   H11T15484   5.203   2.278   4.344  1.6624 -0.0364 -0.0492
  142OSM   C12S15485   5.099   2.458   4.411 -0.2134  0.8762 -0.0612
  142OSM   H12S15486   5.003   2.404   4.420 -0.2528  0.9179 -0.2368
  142OSM   H12T15487   5.067   2.556   4.370 -0.3917  0.3238 -1.2726
  142OSM   C13S15488   5.162   2.468   4.551  0.9132  0.1063  0.5035
  142OSM   H13S15489   5.083   2.476   4.628  0.8958 -0.2922  0.5310
  142OSM   H13T15490   5.237   2.549   4.555 -0.6434  1.8139 -2.2339
  142OSM   C14S15491   5.245   2.343   4.592 -0.6362 -0.2533  0.3733
  142OSM   H14S15492   5.340   2.325   4.536 -2.2284  0.6624 -2.8380
  142OSM   H14T15493   5.182   2.256   4.567  2.2470 -2.1958 -0.6767
  142OSM   C15S15494   5.285   2.345   4.741  0.1197 -0.1071 -0.0022
  142OSM   H15S15495   5.338   2.256   4.779  0.0617 -0.2641 -0.2864
  142OSM   H15T15496   5.191   2.355   4.800  1.1885  1.5494  1.5573
  142OSM   C16S15497   5.371   2.462   4.793 -0.5153 -0.0859  0.6302
  142OSM   H16S15498   5.316   2.558   4.776 -1.9388 -0.8541  0.7028
  142OSM   H16T15499   5.473   2.455   4.751  0.4483  0.4949  2.7779
  142OSM   C17S15500   5.376   2.461   4.947 -0.1591  0.1801 -0.2591
  142OSM   H17S15501   5.337   2.371   4.998 -1.8933 -0.4821 -2.5980
  142OSM   H17T15502   5.303   2.535   4.984  1.4804  1.9621 -0.4104
  142OSM   C18S15503   5.506   2.498   5.016 -0.1111  0.0223 -0.6866
  142OSM   H18S15504   5.477   2.520   5.121 -0.7265  3.9331 -1.5110
  142OSM   H18T15505   5.563   2.587   4.982  0.4442  0.3681  1.0195
  142OSM   H18U15506   5.573   2.411   5.030 -1.1677 -0.8721 -1.0404
  142OSM    C1F15507   4.650   2.874   3.799  0.0014 -0.4249 -0.6302
  142OSM     OF15508   4.541   2.903   3.756 -0.0080 -0.3822  0.3226
  142OSM    C2F15509   4.679   2.896   3.948  0.0802 -0.0369 -0.4318
  142OSM    H2F15510   4.634   2.813   4.007  0.8907 -0.8000 -0.8729
  142OSM    H2G15511   4.625   2.990   3.972 -0.3569 -0.2436 -0.5824
  142OSM    C3F15512   4.819   2.875   3.987  0.1780 -0.1836 -0.2601
  142OSM    H3F15513   4.897   2.931   3.930 -0.1256  0.9795  0.4227
  142OSM    H3G15514   4.842   2.767   3.976 -3.3612 -0.9230 -1.9485
  142OSM    C4F15515   4.846   2.904   4.137 -0.2859 -0.8103 -0.1876
  142OSM    H4F15516   4.768   2.846   4.190  0.5573 -1.3347  0.4965
  142OSM    H4G15517   4.822   3.009   4.165  1.3758 -0.0020 -1.6025
  142OSM    C5F15518   4.988   2.857   4.178 -0.3142 -0.8458 -0.1499
  142OSM    H5F15519   5.064   2.920   4.126 -0.0335 -1.7763 -0.9042
  142OSM    H5G15520   4.994   2.749   4.154 -3.1725 -1.1872  0.2310
  142OSM    C6F15521   5.032   2.880   4.327 -0.4669 -0.2485  0.6689
  142OSM    H6F15522   5.112   2.809   4.356 -1.1891 -1.8357 -1.0477
  142OSM    H6G15523   4.951   2.849   4.395  0.8472 -0.7054  2.0943
  142OSM    C7F15524   5.065   3.019   4.359  0.5926  0.2186 -0.4961
  142OSM    H7F15525   5.015   3.097   4.299 -0.0279  1.1782  1.1915
  142OSM    H7G15526   5.173   3.029   4.336  0.9688 -2.0883  0.0231
  142OSM    C8F15527   5.048   3.048   4.514 -0.1343  0.0218 -0.2822
  142OSM    H8F15528   5.115   3.131   4.542  0.0576 -0.2557  0.0875
  142OSM    H8G15529   5.092   2.959   4.564  1.1908  1.0255  0.3725
  142OSM    C9F15530   4.902   3.076   4.557 -0.3503 -0.0086 -0.1807
  142OSM    H9F15531   4.870   3.176   4.525  0.1120 -0.1592 -1.1719
  142OSM   C10F15532   4.816   3.002   4.633 -1.0627  0.7927  0.0874
  142OSM   H10F15533   4.715   3.035   4.659 -0.8272  0.8324  1.0060
  142OSM   C11F15534   4.846   2.867   4.688 -0.0705 -0.5392  0.2878
  142OSM   H11F15535   4.932   2.819   4.638  0.3042 -0.7346  1.0981
  142OSM   H11G15536   4.762   2.794   4.692  1.3002 -2.1719  0.4304
  142OSM   C12F15537   4.885   2.886   4.831  0.1502  0.3906 -0.1948
  142OSM   H12F15538   4.804   2.930   4.893  1.1568  2.3560 -0.1722
  142OSM   H12G15539   4.974   2.952   4.823 -1.0493  1.9310 -1.6969
  142OSM   C13F15540   4.933   2.757   4.903 -0.6501  0.2802  0.0121
  142OSM   H13F15541   5.018   2.707   4.854 -0.5981  0.2371  0.1449
  142OSM   H13G15542   4.844   2.691   4.914 -0.1501 -0.1636  1.7240
  142OSM   C14F15543   4.995   2.792   5.047  0.0198 -0.4148  0.8947
  142OSM   H14F15544   5.004   2.696   5.102  1.8315 -1.8280 -1.6621
  142OSM   H14G15545   4.925   2.869   5.088  0.5865  0.8579 -0.4100
  142OSM   C15F15546   5.132   2.863   5.044  0.5516 -0.4112  0.2107
  142OSM   H15F15547   5.132   2.958   4.986  0.2551  0.6018  1.7844
  142OSM   H15G15548   5.208   2.800   4.994  1.6379  0.0345  1.2356
  142OSM   C16F15549   5.183   2.895   5.182 -0.2097 -0.4298 -0.3716
  142OSM   H16F15550   5.098   2.932   5.243 -0.1503 -1.6936  0.5043
  142OSM   H16G15551   5.253   2.981   5.171  0.0344 -0.3967  1.2848
  142OSM   C17F15552   5.248   2.773   5.246 -0.4670 -0.1099  0.5753
  142OSM   H17F15553   5.339   2.743   5.189 -0.7444 -1.2866  0.7475
  142OSM   H17G15554   5.172   2.693   5.239 -1.0015  0.5356 -1.8526
  142OSM   C18F15555   5.281   2.796   5.397 -0.0364  0.0457 -0.7151
  142OSM   H18F15556   5.349   2.710   5.419 -0.3158  0.0601  0.2358
  142OSM   H18G15557   5.194   2.791   5.465 -1.5930  0.6875 -2.5656
  142OSM   H18H15558   5.338   2.889   5.416  1.6910 -1.1791  0.3685
  143OSM      N15559   3.184   4.572   3.272 -1.2802  0.5139  0.4765
  143OSM    C1515560   3.306   4.503   3.219  0.6236  0.8276 -0.0914
  143OSM   H15A15561   3.284   4.420   3.154  1.0356 -1.0165  2.0072
  143OSM   H15B15562   3.345   4.452   3.306  1.4273  1.7363  0.0970
  143OSM   H15C15563   3.385   4.565   3.180  0.9175  0.6524  0.2205
  143OSM    C1415564   3.225   4.664   3.384 -0.2986 -0.2172  0.1198
  143OSM   H14A15565   3.147   4.715   3.440  0.0570  0.8602 -0.3293
  143OSM   H14B15566   3.286   4.742   3.341 -0.6805 -1.1678 -2.2831
  143OSM   H14C15567   3.290   4.607   3.448  0.3610  2.1948  1.7655
  143OSM    C1315568   3.124   4.651   3.162 -0.4633 -0.5239 -0.2781
  143OSM   H13A15569   3.049   4.714   3.208 -0.9467 -1.2953  0.0083
  143OSM   H13B15570   3.090   4.588   3.081 -0.6114  0.2603 -0.8350
  143OSM   H13C15571   3.196   4.723   3.127 -0.4992 -0.1467  0.4068
  143OSM    C1215572   3.095   4.460   3.340 -0.3958 -0.1684  0.5460
  143OSM   H12A15573   3.012   4.507   3.390 -1.7081  0.8292 -2.3016
  143OSM   H12B15574   3.158   4.422   3.418  2.3880  0.7299 -1.1372
  143OSM    C1115575   3.037   4.345   3.240 -0.3742  0.4378 -0.2414
  143OSM   H11A15576   2.965   4.391   3.168  1.6898  2.7385 -0.9484
  143OSM   H11B15577   2.972   4.273   3.294  0.2484 -0.4654 -0.6708
  143OSM      P15578   3.154   4.119   3.168  0.0476 -0.3483  0.4089
  143OSM    O1315579   3.031   4.049   3.123 -0.4921 -0.2457 -0.1413
  143OSM    O1415580   3.274   4.088   3.085  0.1631  0.2260  0.0640
  143OSM    O1115581   3.180   4.084   3.324 -0.0504 -0.7316  0.1560
  143OSM    O1215582   3.141   4.278   3.168 -0.2798  0.2257 -0.3455
  143OSM    C1S15583   3.292   4.137   3.394 -0.0086 -0.2947  0.0500
  143OSM    H1S15584   3.323   4.235   3.351  0.3573 -1.2769 -2.0403
  143OSM    H1T15585   3.378   4.069   3.381 -0.2382 -1.4908  3.6083
  143OSM     NF15586   3.367   4.214   3.612 -0.5036  0.0287 -0.0573
  143OSM    HNF15587   3.445   4.156   3.634  0.8925  1.3723 -1.1852
  143OSM    C2S15588   3.267   4.138   3.542 -0.3788 -0.1025 -0.3381
  143OSM    H2S15589   3.168   4.185   3.564 -0.6642 -1.3045  1.1637
  143OSM    C3S15590   3.261   3.994   3.602 -0.0923  0.0998 -0.3608
  143OSM    H3S15591   3.364   3.954   3.608  0.0878  0.6573  0.5834
  143OSM     O315592   3.201   3.891   3.518 -0.0208 -0.1465 -0.3737
  143OSM    HO315593   3.179   3.927   3.432  1.5284 -0.4228 -0.9300
  143OSM    C4S15594   3.216   3.986   3.749 -0.3647 -0.1285  0.1204
  143OSM    H4S15595   3.299   4.000   3.820 -0.2978 -1.7833  0.4107
  143OSM    C5S15596   3.092   3.964   3.799 -0.0173 -1.1894 -0.3022
  143OSM    H5S15597   3.011   3.942   3.727  1.2033 -1.3777 -1.6485
  143OSM    C6S15598   3.058   3.942   3.946  0.6531 -0.1204 -0.1759
  143OSM    H6S15599   3.055   3.835   3.974  2.3321 -0.2171 -0.2644
  143OSM    H6T15600   2.956   3.987   3.956  0.1677 -0.4922 -2.6543
  143OSM    C7S15601   3.154   4.007   4.037  0.2388 -0.3298 -0.5904
  143OSM    H7S15602   3.175   4.112   4.009  1.1120 -1.1764 -3.3834
  143OSM    H7T15603   3.250   3.953   4.048 -0.3468 -1.0439  1.7163
  143OSM    C8S15604   3.099   4.026   4.183 -0.1642 -0.6861 -0.4060
  143OSM    H8S15605   2.991   4.053   4.175 -0.0121 -0.3264 -1.2999
  143OSM    H8T15606   3.149   4.118   4.220 -1.2822  0.6920 -2.1908
  143OSM    C9S15607   3.102   3.899   4.275  0.0075  0.3011 -0.4067
  143OSM    H9S15608   3.209   3.877   4.293  0.0952  1.1822  0.2175
  143OSM    H9T15609   3.053   3.821   4.213  1.4232 -0.2486 -0.8534
  143OSM   C10S15610   3.018   3.913   4.402 -0.1177 -0.3243  0.1338
  143OSM   H10S15611   3.032   3.820   4.461  1.0379  0.6959  1.5236
  143OSM   H10T15612   2.915   3.924   4.362  0.4151  0.8914 -1.0112
  143OSM   C11S15613   3.045   4.029   4.491  0.4554 -0.1287  0.2850
  143OSM   H11S15614   3.013   4.123   4.441 -0.6063 -1.0687 -0.8858
  143OSM   H11T15615   3.155   4.030   4.505  0.5391 -1.4302 -0.1034
  143OSM   C12S15616   2.976   4.014   4.622 -0.1823 -0.1105  0.5671
  143OSM   H12S15617   3.028   3.931   4.675  0.5166  0.3214  0.5609
  143OSM   H12T15618   2.866   4.000   4.611 -0.1198  0.6435 -1.3854
  143OSM   C13S15619   2.985   4.130   4.719 -0.2183  0.4757  1.1854
  143OSM   H13S15620   2.947   4.229   4.687 -1.7916  0.1415  1.9443
  143OSM   H13T15621   3.093   4.149   4.739 -0.0547  1.6897 -0.6390
  143OSM   C14S15622   2.907   4.107   4.849 -0.2102 -0.4034  0.3304
  143OSM   H14S15623   2.967   4.037   4.912 -1.8273 -2.7398 -0.5670
  143OSM   H14T15624   2.816   4.045   4.833 -0.8273  0.2198  1.2914
  143OSM   C15S15625   2.886   4.229   4.932 -0.1106 -0.0143 -0.2757
  143OSM   H15S15626   2.819   4.300   4.878 -1.7392  0.3601  2.0655
  143OSM   H15T15627   2.985   4.272   4.955  0.8170 -1.9663 -0.4104
  143OSM   C16S15628   2.806   4.190   5.062 -1.5454 -0.2970 -0.3497
  143OSM   H16S15629   2.867   4.118   5.121 -0.8255  0.2312 -0.4423
  143OSM   H16T15630   2.720   4.127   5.029 -1.4918  0.0723 -1.2120
  143OSM   C17S15631   2.747   4.299   5.144 -0.8860 -0.4991 -0.5183
  143OSM   H17S15632   2.674   4.365   5.092 -1.6599  0.9512  2.1990
  143OSM   H17T15633   2.832   4.368   5.167 -0.7659 -0.7793 -0.1087
  143OSM   C18S15634   2.679   4.262   5.271  0.3060  0.8210 -0.5615
  143OSM   H18S15635   2.646   4.356   5.320  1.3436 -0.0027  1.8742
  143OSM   H18T15636   2.742   4.218   5.351 -0.4942 -1.3045 -1.0351
  143OSM   H18U15637   2.590   4.195   5.262 -1.2456  2.7564 -0.2918
  143OSM    C1F15638   3.384   4.345   3.610 -1.0348 -0.6096  0.7380
  143OSM     OF15639   3.305   4.422   3.561  0.2911  0.3340  0.2817
  143OSM    C2F15640   3.507   4.405   3.672 -0.5179  0.1642  0.1768
  143OSM    H2F15641   3.592   4.413   3.601 -1.9084  1.8244 -1.4127
  143OSM    H2G15642   3.548   4.343   3.754  0.2152  0.1799 -0.1674
  143OSM    C3F15643   3.487   4.553   3.715  0.3197  0.7431  0.4858
  143OSM    H3F15644   3.409   4.542   3.794 -1.9482  0.7391 -1.6181
  143OSM    H3G15645   3.437   4.603   3.629 -1.5272 -0.9120  0.5058
  143OSM    C4F15646   3.611   4.634   3.757  0.2650  0.3019 -0.5541
  143OSM    H4F15647   3.576   4.735   3.786  2.2282  0.0407  3.4408
  143OSM    H4G15648   3.674   4.638   3.666 -0.6747 -2.2312 -1.4028
  143OSM    C5F15649   3.694   4.575   3.873 -0.9946 -0.0880  0.1403
  143OSM    H5F15650   3.792   4.626   3.875 -2.1646  2.2693  1.6634
  143OSM    H5G15651   3.718   4.470   3.846  2.1190  0.4505  0.4830
  143OSM    C6F15652   3.620   4.583   4.010  0.3495 -0.4435  0.4091
  143OSM    H6F15653   3.525   4.528   3.994  0.3298  0.0928 -1.6756
  143OSM    H6G15654   3.589   4.688   4.027  0.0965 -0.1540 -1.5818
  143OSM    C7F15655   3.697   4.530   4.127  0.0538 -0.0874 -0.6451
  143OSM    H7F15656   3.779   4.603   4.145 -0.1678 -0.0864  0.3852
  143OSM    H7G15657   3.750   4.437   4.095  1.2697  0.5946 -0.6780
  143OSM    C8F15658   3.618   4.492   4.248  0.1123 -0.0131 -0.0893
  143OSM    H8F15659   3.683   4.443   4.323 -0.2758 -0.1419  0.1717
  143OSM    H8G15660   3.545   4.410   4.228 -0.5358  0.3742  0.6360
  143OSM    C9F15661   3.549   4.612   4.300  0.7866  0.0849 -0.2771
  143OSM    H9F15662   3.484   4.669   4.231 -0.4730 -0.9451  0.0185
  143OSM   C10F15663   3.551   4.651   4.433  0.2824 -0.0915  0.7269
  143OSM   H10F15664   3.501   4.747   4.452 -2.4060 -0.8310 -1.7311
  143OSM   C11F15665   3.622   4.587   4.550 -0.7283 -0.0889  1.1069
  143OSM   H11F15666   3.699   4.658   4.585  2.5397 -2.5112 -0.6919
  143OSM   H11G15667   3.682   4.498   4.521  0.6982  1.3055 -0.4185
  143OSM   C12F15668   3.516   4.552   4.651 -0.1985 -0.1894  0.7164
  143OSM   H12F15669   3.460   4.464   4.612 -0.9426  0.8846 -0.7215
  143OSM   H12G15670   3.454   4.640   4.679 -1.7573 -0.9615 -0.1754
  143OSM   C13F15671   3.560   4.499   4.792  0.1306 -0.0942  0.0446
  143OSM   H13F15672   3.630   4.573   4.837 -1.5343  1.3894  0.2756
  143OSM   H13G15673   3.605   4.398   4.776 -1.7835 -1.2320  1.5111
  143OSM   C14F15674   3.436   4.466   4.875  0.3711 -0.5657 -0.4059
  143OSM   H14F15675   3.410   4.358   4.867 -3.1364  0.0144  1.0979
  143OSM   H14G15676   3.354   4.529   4.835 -0.0081 -1.4147 -0.9902
  143OSM   C15F15677   3.463   4.468   5.026  0.0264 -0.0766 -0.5619
  143OSM   H15F15678   3.532   4.548   5.061 -1.0188 -0.0633  1.6480
  143OSM   H15G15679   3.501   4.368   5.058  1.6746  0.0226 -2.0301
  143OSM   C16F15680   3.329   4.486   5.099  0.3898  0.1384 -0.4116
  143OSM   H16F15681   3.253   4.418   5.053 -1.6994  2.0983 -0.0377
  143OSM   H16G15682   3.293   4.589   5.081  4.2683  1.4638 -1.4297
  143OSM   C17F15683   3.322   4.457   5.250 -0.3423  0.1552 -0.4966
  143OSM   H17F15684   3.397   4.524   5.296  2.5384 -2.1000 -1.5189
  143OSM   H17G15685   3.359   4.352   5.256 -1.0564 -0.1168 -0.8083
  143OSM   C18F15686   3.179   4.459   5.317  0.0500 -0.0860  0.2986
  143OSM   H18F15687   3.108   4.396   5.260 -0.8419  0.6136  0.6094
  143OSM   H18G15688   3.148   4.566   5.325  1.0734  0.3425 -1.0757
  143OSM   H18H15689   3.173   4.420   5.421  2.1502  1.1524  0.9443
  144OSM      N15690   4.066   3.626   3.287  0.0273 -0.4164  0.6112
  144OSM    C1515691   4.130   3.612   3.152 -0.6507 -0.0812 -0.2293
  144OSM   H15A15692   4.131   3.708   3.103 -0.3149  0.0173 -0.0283
  144OSM   H15B15693   4.077   3.547   3.082 -1.6628 -1.0559  1.3837
  144OSM   H15C15694   4.229   3.578   3.177 -0.9328 -0.0324  0.9743
  144OSM    C1415695   4.106   3.504   3.368 -0.1536 -0.4307 -0.2514
  144OSM   H14A15696   4.099   3.415   3.309 -0.8026 -0.0245 -0.8041
  144OSM   H14B15697   4.034   3.484   3.446 -1.6725  1.2395 -1.1294
  144OSM   H14C15698   4.206   3.520   3.405  0.6532 -0.0894 -2.4545
  144OSM    C1315699   4.126   3.747   3.352  0.7102  0.5070  0.0356
  144OSM   H13A15700   4.122   3.830   3.283  0.5114 -0.7685 -1.5402
  144OSM   H13B15701   4.228   3.727   3.381  0.2807 -2.3199 -0.1279
  144OSM   H13C15702   4.076   3.770   3.445  1.6472  0.5074  0.5480
  144OSM    C1215703   3.914   3.643   3.275  0.0268  0.0527  0.2918
  144OSM   H12A15704   3.873   3.666   3.372  0.3713  1.5505  0.1132
  144OSM   H12B15705   3.869   3.549   3.249 -1.1522  0.5807  0.3677
  144OSM    C1115706   3.861   3.751   3.181 -0.3498 -0.5772  0.0934
  144OSM   H11A15707   3.916   3.745   3.085 -2.0317  2.1346 -1.1884
  144OSM   H11B15708   3.887   3.848   3.230 -3.8185  0.3996  0.2773
  144OSM      P15709   3.619   3.814   3.258  0.1920 -0.0337  0.0211
  144OSM    O1315710   3.643   3.960   3.246 -0.3884  0.6658  0.8846
  144OSM    O1415711   3.482   3.775   3.224 -0.2434 -0.1319  0.3079
  144OSM    O1115712   3.664   3.762   3.402 -0.0642  0.5325 -0.1275
  144OSM    O1215713   3.721   3.750   3.156 -0.1885 -0.0997 -0.5646
  144OSM    C1S15714   3.712   3.842   3.511  0.1368 -0.6394 -0.3554
  144OSM    H1S15715   3.696   3.950   3.492  2.1545 -0.3763 -0.7575
  144OSM    H1T15716   3.822   3.831   3.516  0.1734 -0.8320 -1.3137
  144OSM     NF15717   3.716   3.894   3.752  0.1544 -0.2925 -0.7967
  144OSM    HNF15718   3.797   3.858   3.799 -0.1699 -1.8667 -1.3893
  144OSM    C2S15719   3.659   3.803   3.653  0.0876  0.2096 -0.2286
  144OSM    H2S15720   3.549   3.818   3.660  0.0743  0.6505 -1.2322
  144OSM    C3S15721   3.673   3.647   3.671  0.3534  0.6221  0.6064
  144OSM    H3S15722   3.781   3.627   3.662  0.6725  2.7522 -0.9226
  144OSM     O315723   3.595   3.571   3.575  0.5268  0.3142  0.8002
  144OSM    HO315724   3.590   3.633   3.502 -0.3010 -0.2199  0.3845
  144OSM    C4S15725   3.629   3.605   3.813 -0.1739  0.4639 -0.0645
  144OSM    H4S15726   3.714   3.630   3.879  0.9454 -0.8798 -0.9350
  144OSM    C5S15727   3.512   3.557   3.857 -0.3328  0.3499  0.1638
  144OSM    H5S15728   3.437   3.538   3.778  1.0943  1.4890 -1.5643
  144OSM    C6S15729   3.473   3.522   3.999  0.8211 -0.5268 -0.4558
  144OSM    H6S15730   3.455   3.414   4.018  0.9181 -0.1802  2.0678
  144OSM    H6T15731   3.374   3.566   4.023  0.9494 -0.7305  0.5246
  144OSM    C7S15732   3.570   3.561   4.111 -0.1063  0.0439  0.3638
  144OSM    H7S15733   3.583   3.671   4.096 -1.1253  0.2190  0.7018
  144OSM    H7T15734   3.670   3.512   4.106  1.1524  2.5287 -1.9817
  144OSM    C8S15735   3.498   3.560   4.245 -0.0337  0.5572 -0.8715
  144OSM    H8S15736   3.444   3.463   4.251 -2.2537  1.7230 -0.7828
  144OSM    H8T15737   3.420   3.639   4.249 -0.2430  0.4616 -2.3969
  144OSM    C9S15738   3.589   3.598   4.363 -0.4550  0.4713  0.6546
  144OSM    H9S15739   3.536   3.683   4.412 -0.8273 -0.6788  2.3725
  144OSM    H9T15740   3.687   3.626   4.320 -0.3776 -0.8314 -0.0693
  144OSM   C10S15741   3.612   3.490   4.468 -0.2454  0.3809  0.2632
  144OSM   H10S15742   3.707   3.513   4.522 -0.4586 -0.9055  1.2576
  144OSM   H10T15743   3.623   3.394   4.413  0.0525  1.2133 -1.1753
  144OSM   C11S15744   3.501   3.480   4.583 -0.2025  0.4563  0.0184
  144OSM   H11S15745   3.400   3.473   4.538  0.0604  0.3695 -0.5631
  144OSM   H11T15746   3.506   3.580   4.633 -2.2577  2.3886 -3.3143
  144OSM   C12S15747   3.532   3.361   4.670  0.2443  0.3410 -0.0410
  144OSM   H12S15748   3.633   3.370   4.716  0.7287 -1.1183 -0.7544
  144OSM   H12T15749   3.531   3.270   4.605 -1.8074  0.5401 -0.3468
  144OSM   C13S15750   3.438   3.331   4.789  0.3095 -0.9233  0.3847
  144OSM   H13S15751   3.478   3.237   4.833  2.7694  0.2537  0.8225
  144OSM   H13T15752   3.333   3.309   4.759  0.6306 -0.6193 -1.0404
  144OSM   C14S15753   3.425   3.453   4.888 -0.0185 -0.0451 -0.0934
  144OSM   H14S15754   3.352   3.524   4.844  1.0020  0.3314 -1.2416
  144OSM   H14T15755   3.519   3.511   4.887 -1.2406  2.0323  0.0935
  144OSM   C15S15756   3.374   3.426   5.028 -0.4937 -0.1493 -0.4312
  144OSM   H15S15757   3.431   3.351   5.087 -2.5384 -0.6152  1.0905
  144OSM   H15T15758   3.275   3.376   5.023  0.0400 -1.1757 -1.0063
  144OSM   C16S15759   3.370   3.552   5.121  0.1185 -0.2050 -0.4553
  144OSM   H16S15760   3.313   3.634   5.073  1.2557  1.0722  0.3167
  144OSM   H16T15761   3.476   3.579   5.138  0.2008 -1.5779  1.6463
  144OSM   C17S15762   3.327   3.534   5.264 -0.1059  0.3939 -0.2757
  144OSM   H17S15763   3.394   3.470   5.325 -1.2770 -0.2122  0.4069
  144OSM   H17T15764   3.230   3.480   5.261 -0.0393  0.2956 -1.0248
  144OSM   C18S15765   3.302   3.660   5.345 -0.0056 -0.1278 -0.5507
  144OSM   H18S15766   3.266   3.634   5.446 -1.0258 -1.2399 -1.1775
  144OSM   H18T15767   3.239   3.736   5.294 -0.7628 -1.2508 -1.3349
  144OSM   H18U15768   3.403   3.702   5.365  0.2529 -1.2944  0.6600
  144OSM    C1F15769   3.670   4.024   3.771  0.5889  0.2977 -0.8396
  144OSM     OF15770   3.564   4.054   3.709 -0.1056 -0.1032  0.3688
  144OSM    C2F15771   3.754   4.109   3.861 -0.4309  0.4337 -0.2992
  144OSM    H2F15772   3.774   4.205   3.810 -1.1694  0.4917 -0.4867
  144OSM    H2G15773   3.845   4.048   3.880 -0.8093  0.0288  0.2444
  144OSM    C3F15774   3.687   4.142   3.998 -0.3826 -1.0820  0.4247
  144OSM    H3F15775   3.604   4.211   3.972  0.9172  0.2731 -0.2634
  144OSM    H3G15776   3.766   4.189   4.060 -2.3505 -0.5020  2.6789
  144OSM    C4F15777   3.623   4.013   4.069 -0.3066  0.2556 -0.0205
  144OSM    H4F15778   3.706   3.944   4.096 -0.3872  0.6374  1.2558
  144OSM    H4G15779   3.556   3.957   4.000  0.4608  1.6122 -1.9655
  144OSM    C5F15780   3.551   4.032   4.201  0.5168  0.3112  0.1179
  144OSM    H5F15781   3.520   3.931   4.235  1.6834  0.3454  1.3736
  144OSM    H5G15782   3.462   4.098   4.206  1.8193  2.0383  3.3683
  144OSM    C6F15783   3.657   4.081   4.309 -0.4521 -0.0067  0.2791
  144OSM    H6F15784   3.709   4.170   4.270 -0.7127 -0.6869 -1.7611
  144OSM    H6G15785   3.730   4.001   4.333  0.6194  1.1499  0.9761
  144OSM    C7F15786   3.589   4.127   4.440  0.4224  0.0405  0.3946
  144OSM    H7F15787   3.514   4.202   4.407 -0.8145 -0.9937  0.7742
  144OSM    H7G15788   3.669   4.176   4.501  1.8160 -0.5819 -0.8571
  144OSM    C8F15789   3.509   4.033   4.525  0.1298 -0.0779 -0.2795
  144OSM    H8F15790   3.430   3.985   4.464 -1.2741  0.9833  0.6636
  144OSM    H8G15791   3.471   4.101   4.603 -2.4367  0.6196 -2.0294
  144OSM    C9F15792   3.582   3.912   4.580 -0.1579 -0.6047  0.0479
  144OSM    H9F15793   3.637   3.861   4.499  1.1021 -0.6890  0.9236
  144OSM   C10F15794   3.586   3.868   4.709  0.5830 -0.2178 -0.3682
  144OSM   H10F15795   3.644   3.775   4.723  1.3721  0.4090  0.7638
  144OSM   C11F15796   3.512   3.923   4.831 -0.0614  0.2620 -0.1392
  144OSM   H11F15797   3.512   4.032   4.809  1.5458  0.4639  0.7198
  144OSM   H11G15798   3.576   3.908   4.921 -0.1139 -0.6617 -0.2495
  144OSM   C12F15799   3.378   3.863   4.850 -0.3510  0.1907  1.2032
  144OSM   H12F15800   3.368   3.753   4.837 -0.3402  0.3414 -0.2515
  144OSM   H12G15801   3.309   3.904   4.773 -1.1497 -2.9834  0.0292
  144OSM   C13F15802   3.310   3.903   4.987  0.0475 -0.0660  0.8349
  144OSM   H13F15803   3.346   3.846   5.076  1.8200 -2.8847 -1.4833
  144OSM   H13G15804   3.203   3.877   4.978  0.2448 -0.7643  0.3750
  144OSM   C14F15805   3.317   4.057   5.017 -0.4360  0.6230 -0.0384
  144OSM   H14F15806   3.313   4.110   4.919 -0.0931 -1.7229 -1.3979
  144OSM   H14G15807   3.413   4.084   5.065  0.7652 -3.0430 -0.0828
  144OSM   C15F15808   3.212   4.102   5.118 -0.1979  0.7320  0.9953
  144OSM   H15F15809   3.109   4.077   5.087  0.2454  1.9228 -1.7147
  144OSM   H15G15810   3.206   4.213   5.109 -3.6241  0.4527 -2.5999
  144OSM   C16F15811   3.239   4.068   5.264 -0.4552  0.6522 -0.0061
  144OSM   H16F15812   3.305   4.146   5.308  0.3242 -0.2189  0.3995
  144OSM   H16G15813   3.303   3.977   5.266 -0.2803  0.7578 -0.5318
  144OSM   C17F15814   3.109   4.052   5.343  0.7305  0.4798  0.5836
  144OSM   H17F15815   3.047   3.968   5.307  2.1404 -0.1110 -0.5658
  144OSM   H17G15816   3.056   4.147   5.324 -0.4445 -1.0622 -6.3522
  144OSM   C18F15817   3.138   4.032   5.491 -0.0446  0.0430 -0.2619
  144OSM   H18F15818   3.164   4.131   5.536  0.0570 -0.7707  1.5239
  144OSM   H18G15819   3.222   3.960   5.504  2.0965  2.6580  1.8563
  144OSM   H18H15820   3.043   3.994   5.534 -1.9103  0.5743 -3.5800
  145SAPE     N15821   6.034   1.712   8.174  0.5031  0.2490 -0.1795
  145SAPE   HN115822   6.089   1.771   8.239  1.8177 -2.6374  1.5021
  145SAPE   HN215823   5.935   1.719   8.205  0.3323  2.6982 -1.0560
  145SAPE   HN315824   6.069   1.615   8.179  0.3268  0.2540  1.6293
  145SAPE   C1215825   6.054   1.766   8.039  0.9621  0.4885  0.5678
  145SAPE  H12A15826   6.091   1.689   7.968  1.1550  1.5414 -0.5140
  145SAPE  H12B15827   6.133   1.844   8.052  0.1927  1.6879 -1.4480
  145SAPE   C1115828   5.920   1.825   8.001 -0.3814 -0.5063  0.9481
  145SAPE  H11A15829   5.941   1.897   7.919 -1.7420 -2.8953 -1.6563
  145SAPE  H11B15830   5.862   1.879   8.079 -0.4009  2.4933 -1.0066
  145SAPE     P15831   5.692   1.743   7.883  0.1588 -0.2660 -0.0288
  145SAPE   O1315832   5.633   1.612   7.848  0.0966 -0.4867  0.5647
  145SAPE   O1415833   5.604   1.825   7.968  0.3127  0.4283  0.8725
  145SAPE   O1215834   5.823   1.725   7.967 -0.2990 -0.1244  0.7917
  145SAPE   O1115835   5.744   1.818   7.757 -0.0112  0.3449  0.4927
  145SAPE    C115836   5.835   1.757   7.668 -0.1103  0.0062  0.8636
  145SAPE    HA15837   5.929   1.726   7.718  1.4443  2.7722 -0.1526
  145SAPE    HB15838   5.797   1.669   7.612  0.2694  0.6928 -0.5050
  145SAPE    C215839   5.862   1.851   7.549  0.4319 -0.2319 -0.8730
  145SAPE    HS15840   5.934   1.804   7.480  0.0942 -0.5844 -0.9874
  145SAPE   O2115841   5.909   1.979   7.602  0.3085 -0.2629 -0.0742
  145SAPE   C2115842   6.039   1.974   7.637  0.2764 -0.1119  0.3462
  145SAPE   O2215843   6.108   1.878   7.651  0.2474  0.8140  0.3522
  145SAPE   C2215844   6.080   2.122   7.676 -0.6468 -0.4509  0.1473
  145SAPE   H2R15845   6.005   2.196   7.641  2.6225  1.4103 -3.7076
  145SAPE   H2S15846   6.082   2.132   7.787 -0.1237  1.4726 -0.0093
  145SAPE    C315847   5.729   1.867   7.471  0.3551  0.5701 -0.0095
  145SAPE    HX15848   5.647   1.899   7.539  0.6010 -1.4434  1.3157
  145SAPE    HY15849   5.704   1.770   7.424 -0.4026  1.5158 -1.6451
  145SAPE   O3115850   5.739   1.968   7.368  0.2794 -0.2485  0.0747
  145SAPE   C3115851   5.801   1.936   7.257 -0.0446  0.5888  0.3863
  145SAPE   O3215852   5.866   1.837   7.235 -0.0453  0.1246  0.2044
  145SAPE   C3215853   5.768   2.042   7.149 -0.5026  0.3555  0.0035
  145SAPE   H2X15854   5.792   2.142   7.192 -0.1449 -0.2331  1.2171
  145SAPE   H2Y15855   5.658   2.045   7.132 -0.4778  2.7819 -0.0296
  145SAPE   C2315856   6.215   2.163   7.622  0.3262  0.1975 -0.3965
  145SAPE   H3R15857   6.281   2.079   7.592 -0.2754  0.0351 -1.3332
  145SAPE   H3S15858   6.265   2.218   7.704  0.2063  0.4087 -0.4660
  145SAPE   C2415859   6.218   2.259   7.503 -0.2628 -0.1592 -0.4960
  145SAPE   H4R15860   6.326   2.270   7.477  0.6197 -0.9141  2.3727
  145SAPE   H4S15861   6.185   2.360   7.536 -0.6214 -0.6648  0.7582
  145SAPE   C2515862   6.132   2.212   7.396  0.2712  0.0542  0.2786
  145SAPE   H5R15863   6.031   2.256   7.390 -1.3084 -3.3105  0.0251
  145SAPE   C2615864   6.167   2.128   7.295 -1.2314  0.4849 -0.4124
  145SAPE   H6R15865   6.087   2.103   7.224 -0.8257 -1.3904 -0.2590
  145SAPE   C2715866   6.308   2.061   7.280  0.2234  0.7912  0.1435
  145SAPE   H7R15867   6.291   1.952   7.268 -0.1946  0.9541 -0.8876
  145SAPE   H7S15868   6.364   2.064   7.376 -0.0407  0.7401  0.2989
  145SAPE   C2815869   6.387   2.110   7.172 -0.2400 -0.4694  0.9750
  145SAPE   H8R15870   6.473   2.175   7.192 -0.3701 -0.0401  0.2001
  145SAPE   C2915871   6.379   2.073   7.042  0.5668 -0.1163 -0.3056
  145SAPE   H9R15872   6.431   2.135   6.968 -0.8129  1.4413 -0.0062
  145SAPE  C21015873   6.274   1.979   6.981  0.4339  0.8771  0.1493
  145SAPE  H10R15874   6.185   1.970   7.046  1.1775  2.4160  1.4537
  145SAPE  H10S15875   6.305   1.872   6.982 -2.1457  0.0555 -0.4983
  145SAPE  C21115876   6.230   2.013   6.844 -0.3296 -0.0729  0.3274
  145SAPE  H11R15877   6.147   2.086   6.843 -2.0112 -1.9108 -0.2564
  145SAPE  C21215878   6.238   1.936   6.741  0.3788  0.0882  0.1745
  145SAPE  H12R15879   6.190   1.971   6.648  2.3221 -1.5011 -1.5324
  145SAPE  C21315880   6.326   1.818   6.716 -0.1432  0.2571 -0.0958
  145SAPE  H13R15881   6.355   1.772   6.813 -2.2094  3.5496  2.2997
  145SAPE  H13S15882   6.422   1.852   6.671  0.4076 -1.0999  0.0024
  145SAPE  C21415883   6.266   1.715   6.618  0.4186  0.0087 -0.1524
  145SAPE  H14R15884   6.206   1.642   6.673 -4.0586  2.5228 -1.1453
  145SAPE  C21515885   6.263   1.714   6.487  0.0861 -0.0579 -0.2984
  145SAPE  H15R15886   6.232   1.620   6.438  0.0155  1.0362 -2.4488
  145SAPE  C21615887   6.324   1.811   6.393  0.5153 -0.6020  0.1200
  145SAPE  H16R15888   6.404   1.765   6.331  0.8360 -1.6249  1.2627
  145SAPE  H16S15889   6.382   1.884   6.453  1.5261 -1.2731 -0.0173
  145SAPE  C21715890   6.230   1.891   6.297  0.1290 -0.2852 -0.3068
  145SAPE  H17R15891   6.288   1.971   6.247 -2.3551  1.5664 -0.4174
  145SAPE  H17S15892   6.148   1.942   6.351 -0.8701 -1.3718 -0.7523
  145SAPE  C21815893   6.181   1.807   6.173  0.3740 -0.5428 -0.1233
  145SAPE  H18R15894   6.103   1.863   6.117 -0.6780 -1.3052  0.5285
  145SAPE  H18S15895   6.122   1.723   6.217 -2.0410  1.1936  0.1367
  145SAPE  C21915896   6.292   1.758   6.076  0.7105  0.4457 -0.1989
  145SAPE  H19R15897   6.366   1.699   6.134  0.4226 -0.2344 -0.5065
  145SAPE  H19S15898   6.346   1.845   6.033 -0.5977  0.5336 -1.7815
  145SAPE  C22015899   6.231   1.669   5.977 -0.2533 -0.2888 -0.2174
  145SAPE  H20R15900   6.141   1.703   5.921  0.8024  0.0344 -1.8022
  145SAPE  H20S15901   6.197   1.575   6.026 -2.8352  0.0527 -1.1998
  145SAPE  H20T15902   6.316   1.640   5.910  0.2904 -1.1850  0.8286
  145SAPE   C3315903   5.842   2.011   7.018  0.5347 -0.6611 -0.0142
  145SAPE   H3X15904   5.860   1.902   7.005 -0.7714 -0.9277  0.2439
  145SAPE   H3Y15905   5.949   2.042   7.019  0.8708 -1.5482 -2.0467
  145SAPE   C3415906   5.749   2.058   6.901 -0.8597 -0.6784  0.3495
  145SAPE   H4X15907   5.659   1.994   6.893 -0.8756 -0.6824  0.5405
  145SAPE   H4Y15908   5.824   2.037   6.821 -2.7877 -3.6864 -0.8087
  145SAPE   C3515909   5.701   2.203   6.914 -0.6178  0.1180 -0.0038
  145SAPE   H5X15910   5.786   2.269   6.942 -0.2612  0.7297 -2.3110
  145SAPE   H5Y15911   5.628   2.230   6.992 -1.7513  0.3855 -1.1238
  145SAPE   C3615912   5.657   2.261   6.779 -0.1546 -0.5891  0.4915
  145SAPE   H6X15913   5.579   2.191   6.744 -0.5168  0.8930 -1.8364
  145SAPE   H6Y15914   5.742   2.249   6.708 -0.2767 -0.3459  0.3035
  145SAPE   C3715915   5.599   2.404   6.798 -0.5469 -0.1795  0.4010
  145SAPE   H7X15916   5.677   2.466   6.848 -1.3429  1.8154 -0.7188
  145SAPE   H7Y15917   5.510   2.395   6.864  0.6300 -0.1535  2.0594
  145SAPE   C3815918   5.545   2.463   6.672 -0.2242  0.1795 -0.1634
  145SAPE   H8X15919   5.535   2.571   6.694 -0.9083  0.8071 -3.1501
  145SAPE   H8Y15920   5.445   2.422   6.649  0.3367  0.5759 -3.8897
  145SAPE   C3915921   5.639   2.474   6.555  0.5126 -0.1268  0.0522
  145SAPE   H9X15922   5.676   2.375   6.521 -0.1911 -0.4656  0.2317
  145SAPE   H9Y15923   5.734   2.527   6.574  0.0476 -0.1192  2.8807
  145SAPE  C31015924   5.574   2.528   6.426 -0.2324 -0.2781  0.0171
  145SAPE  H10X15925   5.501   2.455   6.387 -0.7610  0.1198  0.2456
  145SAPE  H10Y15926   5.648   2.539   6.344 -0.9432  0.5588 -0.5221
  145SAPE  C31115927   5.516   2.665   6.440  0.0407 -0.0540  0.4522
  145SAPE  H11X15928   5.581   2.719   6.512 -0.2562 -0.6760  1.2058
  145SAPE  H11Y15929   5.417   2.649   6.489 -0.3421 -1.4313 -0.7071
  145SAPE  C31215930   5.496   2.745   6.308  0.2056  0.0392 -0.2574
  145SAPE  H12X15931   5.458   2.673   6.233 -0.5129 -2.4319  2.2900
  145SAPE  H12Y15932   5.585   2.802   6.272  2.4342 -1.7178  2.0653
  145SAPE  C31315933   5.396   2.855   6.335 -0.3332 -0.2553 -0.0034
  145SAPE  H13X15934   5.428   2.919   6.421 -1.1581 -1.0979  0.9520
  145SAPE  H13Y15935   5.297   2.819   6.370 -2.4693  2.1480 -3.0214
  145SAPE  C31415936   5.363   2.934   6.205  0.3063  1.0883  0.6568
  145SAPE  H14X15937   5.454   2.969   6.152  0.4193  0.0641  0.1572
  145SAPE  H14Y15938   5.293   3.016   6.234 -2.8025 -0.9576 -0.5750
  145SAPE  C31515939   5.274   2.860   6.094 -0.2365  0.3497 -0.4725
  145SAPE  H15X15940   5.182   2.825   6.146  0.9440 -0.1992  1.3418
  145SAPE  H15Y15941   5.315   2.767   6.049 -4.2163 -0.3838 -3.1103
  145SAPE  C31615942   5.248   2.957   5.978 -0.0170  0.0993 -0.0784
  145SAPE  H16X15943   5.342   3.012   5.954  1.3894 -0.7991  2.8391
  145SAPE  H16Y15944   5.169   3.028   6.011  1.1591  2.3054 -1.7060
  145SAPE  C31715945   5.204   2.891   5.845 -0.3479  0.5984  0.0567
  145SAPE  H17X15946   5.124   2.816   5.864  0.1747 -0.1288 -0.5750
  145SAPE  H17Y15947   5.288   2.832   5.805 -0.4763  1.2063 -1.1570
  145SAPE  C31815948   5.151   2.995   5.745 -0.6702 -0.5077  0.1214
  145SAPE  H18X15949   5.108   2.950   5.653 -1.5657  1.0052 -0.2399
  145SAPE  H18Y15950   5.239   3.054   5.710 -0.2306  0.0615  2.0759
  145SAPE  H18Z15951   5.069   3.055   5.790  0.3134  0.6892  0.3841
  146SAPE     N15952   1.793   2.017   7.776 -0.3908 -0.1194 -0.1506
  146SAPE   HN115953   1.838   1.970   7.696  0.5619 -2.8535  1.8540
  146SAPE   HN215954   1.772   2.116   7.751  0.6346  0.0215 -0.4842
  146SAPE   HN315955   1.858   2.014   7.857  0.4066  3.0180 -0.5328
  146SAPE   C1215956   1.669   1.960   7.825  0.0952 -0.1142  0.0406
  146SAPE  H12A15957   1.637   2.017   7.915  0.6344  2.4062 -1.2597
  146SAPE  H12B15958   1.692   1.858   7.861 -0.1296  0.1678  1.0101
  146SAPE   C1115959   1.557   1.964   7.720 -0.7184 -0.7113 -0.2481
  146SAPE  H11A15960   1.466   1.943   7.780  0.3795  0.9021  2.1494
  146SAPE  H11B15961   1.566   1.882   7.646 -0.6992 -1.2214  0.3108
  146SAPE     P15962   1.400   2.128   7.599  0.2623 -0.5676  0.1179
  146SAPE   O1315963   1.290   2.117   7.694  0.4003  0.2159 -0.9418
  146SAPE   O1415964   1.425   2.257   7.531  0.1656  0.0324  0.1306
  146SAPE   O1215965   1.542   2.094   7.659  0.4664  0.3627  0.1080
  146SAPE   O1115966   1.377   2.007   7.497 -0.0964 -0.2841  0.0017
  146SAPE    C115967   1.470   2.001   7.383 -0.1499  0.0443  0.3176
  146SAPE    HA15968   1.572   2.040   7.402  0.8400 -1.6973 -1.1291
  146SAPE    HB15969   1.499   1.895   7.372  1.2097  0.3647  0.5915
  146SAPE    C215970   1.406   2.041   7.252  1.2440 -0.7868 -0.8250
  146SAPE    HS15971   1.441   1.973   7.171  1.9455  0.9848 -2.0841
  146SAPE   O2115972   1.451   2.174   7.216 -0.1512 -0.7369 -0.0282
  146SAPE   C2115973   1.570   2.172   7.151 -0.1659  0.9230  0.2120
  146SAPE   O2215974   1.644   2.076   7.150 -0.3926  0.4811 -0.7113
  146SAPE   C2215975   1.576   2.281   7.053  0.8817 -0.5832 -0.3303
  146SAPE   H2R15976   1.476   2.292   7.005 -0.5195 -1.6278  2.1805
  146SAPE   H2S15977   1.586   2.373   7.114 -1.5019 -1.2095  1.1193
  146SAPE    C315978   1.251   2.030   7.260 -0.6184  0.5339  0.2326
  146SAPE    HX15979   1.217   2.092   7.346 -1.5315  2.8618 -1.6836
  146SAPE    HY15980   1.228   1.923   7.279  1.9965 -0.1297 -0.0611
  146SAPE   O3115981   1.191   2.086   7.140  0.2615  0.0383 -0.3004
  146SAPE   C3115982   1.182   1.997   7.038  0.1935 -0.4485 -0.4666
  146SAPE   O3215983   1.231   1.888   7.033  0.4460  0.2908 -0.6657
  146SAPE   C3215984   1.109   2.069   6.927  0.2644  1.4073  0.5738
  146SAPE   H2X15985   1.126   2.179   6.934  0.3317  1.6199 -1.9831
  146SAPE   H2Y15986   1.000   2.049   6.926  0.6157 -0.8468 -1.5407
  146SAPE   C2315987   1.676   2.262   6.934  0.5336 -0.0229 -0.9493
  146SAPE   H3R15988   1.652   2.169   6.879 -1.3395  0.7170 -1.4620
  146SAPE   H3S15989   1.773   2.253   6.988  1.1127 -1.7528 -2.1846
  146SAPE   C2415990   1.680   2.393   6.849  0.1818  0.2549 -1.1572
  146SAPE   H4R15991   1.756   2.373   6.771  1.8736  1.2784  0.1629
  146SAPE   H4S15992   1.714   2.480   6.909  3.1826 -1.2469 -0.4912
  146SAPE   C2515993   1.549   2.412   6.781 -0.4285 -0.1215 -0.5517
  146SAPE   H5R15994   1.476   2.471   6.836 -1.0739  0.0454 -1.5586
  146SAPE   C2615995   1.507   2.359   6.666  0.4961 -0.4937  0.6642
  146SAPE   H6R15996   1.411   2.392   6.626 -0.9204  0.1490  4.2012
  146SAPE   C2715997   1.592   2.275   6.571  0.2451  0.1517 -0.4696
  146SAPE   H7R15998   1.699   2.264   6.599  0.1967  0.3714 -0.1928
  146SAPE   H7S15999   1.585   2.316   6.468  0.4905 -1.4168 -1.1311
  146SAPE   C2816000   1.543   2.131   6.576 -0.2242 -0.4879 -0.0446
  146SAPE   H8R16001   1.572   2.090   6.674 -0.6093  0.8296  0.6380
  146SAPE   C2916002   1.491   2.053   6.481  0.2401 -0.3824 -0.4166
  146SAPE   H9R16003   1.457   1.953   6.511 -0.1243  0.0538  0.6673
  146SAPE  C21016004   1.467   2.100   6.337  0.3643  0.0559 -0.0440
  146SAPE  H10R16005   1.512   2.197   6.311 -0.8257 -0.2919 -4.0273
  146SAPE  H10S16006   1.357   2.117   6.326  0.1980  0.1929  1.6101
  146SAPE  C21116007   1.510   1.990   6.241  0.1186 -0.2464 -0.4592
  146SAPE  H11R16008   1.496   1.885   6.268  3.1271 -0.3884  0.9349
  146SAPE  C21216009   1.585   2.013   6.131 -0.0250 -0.0543  0.2040
  146SAPE  H12R16010   1.630   1.925   6.084  1.4438  1.0361 -0.5131
  146SAPE  C21316011   1.616   2.146   6.065  0.4801  0.2617 -0.5156
  146SAPE  H13R16012   1.700   2.190   6.123 -0.8843  0.8653  1.0763
  146SAPE  H13S16013   1.537   2.218   6.091  0.1310 -0.7828  1.5179
  146SAPE  C21416014   1.635   2.145   5.918  1.0100 -0.0162 -0.8612
  146SAPE  H14R16015   1.736   2.167   5.881  0.6866  0.4136 -1.5212
  146SAPE  C21516016   1.541   2.114   5.828  0.7905 -0.6755 -0.4381
  146SAPE  H15R16017   1.557   2.116   5.720 -2.1753 -1.4848 -0.9935
  146SAPE  C21616018   1.397   2.081   5.874  0.6657 -0.0396  0.1533
  146SAPE  H16R16019   1.328   2.163   5.844 -0.2991  0.1327  2.6251
  146SAPE  H16S16020   1.386   2.087   5.984  4.1706 -0.6070  0.6462
  146SAPE  C21716021   1.341   1.957   5.809  0.2415 -0.0002 -0.6565
  146SAPE  H17R16022   1.255   1.930   5.874  3.1116  1.2099  4.0965
  146SAPE  H17S16023   1.406   1.870   5.831 -0.4301 -0.7186 -1.4533
  146SAPE  C21816024   1.322   1.950   5.660 -0.5754 -0.4348 -0.0148
  146SAPE  H18R16025   1.267   1.858   5.632 -1.1033 -0.4784  1.1005
  146SAPE  H18S16026   1.417   1.946   5.604 -0.3280  0.2416  0.3412
  146SAPE  C21916027   1.230   2.054   5.596  0.5654  0.0833  0.1191
  146SAPE  H19R16028   1.266   2.152   5.634  0.5018 -0.5906  2.0325
  146SAPE  H19S16029   1.126   2.031   5.628  0.4469 -2.3749 -1.7175
  146SAPE  C22016030   1.228   2.047   5.442  0.1334  0.6566 -0.7673
  146SAPE  H20R16031   1.137   2.103   5.411  0.1776  1.5371  0.6172
  146SAPE  H20S16032   1.214   1.939   5.423 -0.6947  0.1806  2.1667
  146SAPE  H20T16033   1.324   2.082   5.398  1.4361 -1.2881  0.3931
  146SAPE   C3316034   1.161   2.034   6.794  0.4978  0.0681  1.0541
  146SAPE   H3X16035   1.152   1.924   6.784  1.5422  0.0268  0.4908
  146SAPE   H3Y16036   1.268   2.054   6.778  0.8855 -1.4152  1.5728
  146SAPE   C3416037   1.091   2.110   6.680  0.2101  0.2245  0.2021
  146SAPE   H4X16038   0.982   2.099   6.698  0.0883 -3.8319 -1.9155
  146SAPE   H4Y16039   1.114   2.060   6.584  4.8543  1.2937  0.5292
  146SAPE   C3516040   1.118   2.259   6.668  0.0942 -0.1861  0.0879
  146SAPE   H5X16041   1.226   2.277   6.651 -0.1277 -1.4570 -3.6142
  146SAPE   H5Y16042   1.073   2.305   6.759 -0.8988  0.6680 -0.8098
  146SAPE   C3616043   1.049   2.331   6.548  0.0677  0.8873 -1.2372
  146SAPE   H6X16044   1.085   2.437   6.552  1.9935  0.2621 -0.6835
  146SAPE   H6Y16045   0.939   2.321   6.559  0.3947 -0.8819  1.1725
  146SAPE   C3716046   1.084   2.282   6.403 -0.2839 -1.0953  0.8834
  146SAPE   H7X16047   1.083   2.171   6.405 -0.9382 -1.0856  1.2881
  146SAPE   H7Y16048   1.192   2.299   6.383 -0.8063 -0.9164 -2.3175
  146SAPE   C3816049   1.004   2.342   6.279  0.2014  0.1788  0.3409
  146SAPE   H8X16050   1.025   2.451   6.286  1.0473  0.2168 -1.8504
  146SAPE   H8Y16051   0.896   2.317   6.291  0.3939  0.5236  3.3932
  146SAPE   C3916052   1.059   2.305   6.137  0.6093  0.5222  0.1512
  146SAPE   H9X16053   1.170   2.312   6.131  0.5448  1.8305  0.1990
  146SAPE   H9Y16054   1.022   2.382   6.067 -0.0171  0.7272  0.7001
  146SAPE  C31016055   1.016   2.169   6.078 -0.0215 -0.2079 -0.3686
  146SAPE  H10X16056   0.914   2.145   6.116  0.2840 -0.2800  0.4281
  146SAPE  H10Y16057   1.070   2.077   6.108 -1.2139 -0.8419 -0.0851
  146SAPE  C31116058   1.013   2.164   5.921  0.0640 -0.0900  0.3545
  146SAPE  H11X16059   0.977   2.064   5.891  0.7847 -0.4353  0.5998
  146SAPE  H11Y16060   1.116   2.164   5.879 -1.0139  0.0224 -2.4659
  146SAPE  C31216061   0.917   2.269   5.860 -0.3641 -0.2685  0.2544
  146SAPE  H12X16062   0.965   2.366   5.881  2.7657 -1.4119 -1.0128
  146SAPE  H12Y16063   0.821   2.250   5.913  0.7209 -1.3838  1.9241
  146SAPE  C31316064   0.903   2.241   5.709  0.6618  0.1435  0.1684
  146SAPE  H13X16065   0.861   2.139   5.697  0.0236  0.4529 -0.2961
  146SAPE  H13Y16066   1.001   2.244   5.657  0.5140 -0.4625 -0.1487
  146SAPE  C31416067   0.811   2.338   5.642  0.6396  0.5937 -0.9393
  146SAPE  H14X16068   0.710   2.317   5.683  0.9209 -1.9257 -1.3737
  146SAPE  H14Y16069   0.814   2.323   5.532 -2.8527 -1.9459 -0.8620
  146SAPE  C31516070   0.843   2.485   5.670 -0.3758 -0.7164 -1.1290
  146SAPE  H15X16071   0.952   2.496   5.684 -0.6736 -0.2049  1.1798
  146SAPE  H15Y16072   0.811   2.509   5.774  0.6909  0.8445 -1.1234
  146SAPE  C31616073   0.792   2.582   5.562 -0.1459 -0.5067  0.0220
  146SAPE  H16X16074   0.831   2.531   5.471 -1.5093 -3.1119  0.8152
  146SAPE  H16Y16075   0.827   2.685   5.584  1.4860 -1.3984  1.9439
  146SAPE  C31716076   0.636   2.585   5.553  0.4644  0.3420 -0.3184
  146SAPE  H17X16077   0.596   2.630   5.646  0.5155 -0.0828 -0.0894
  146SAPE  H17Y16078   0.612   2.477   5.552  2.1253 -0.0639  0.6601
  146SAPE  C31816079   0.584   2.640   5.419 -0.3059 -0.2188 -0.2694
  146SAPE  H18X16080   0.476   2.661   5.406 -0.2083 -0.9505 -2.9414
  146SAPE  H18Y16081   0.612   2.579   5.330  1.3693 -0.2763  0.2621
  146SAPE  H18Z16082   0.639   2.735   5.402 -0.6016 -0.0201 -0.1018
  147SAPE     N16083   6.759   6.558   7.349 -0.4808  0.0010  0.2772
  147SAPE   HN116084   6.697   6.477   7.330 -0.8616  0.0139  1.3515
  147SAPE   HN216085   6.849   6.520   7.382  0.3979  1.8246  0.1175
  147SAPE   HN316086   6.730   6.613   7.433 -0.4552  0.0588  0.2475
  147SAPE   C1216087   6.782   6.646   7.229 -0.2266 -0.4535 -0.1434
  147SAPE  H12A16088   6.684   6.689   7.203 -0.5827 -1.0220  0.2187
  147SAPE  H12B16089   6.792   6.581   7.140 -0.1018  0.6092 -0.9243
  147SAPE   C1116090   6.910   6.731   7.229 -0.0009 -0.3005  0.6159
  147SAPE  H11A16091   6.934   6.762   7.125  0.7534  2.1583  1.4400
  147SAPE  H11B16092   6.996   6.672   7.268 -0.9596 -1.5989  0.8454
  147SAPE     P16093   6.987   6.905   7.403 -0.0031  0.0301 -0.1129
  147SAPE   O1316094   6.959   7.043   7.440  0.5500 -0.5138  0.1522
  147SAPE   O1416095   6.991   6.810   7.513 -0.3676  0.2897 -0.0674
  147SAPE   O1216096   6.885   6.847   7.300  0.0095 -0.1580  0.1229
  147SAPE   O1116097   7.119   6.897   7.317 -0.1380 -0.3498  0.0308
  147SAPE    C116098   7.248   6.944   7.357 -0.0031 -0.4122 -0.1082
  147SAPE    HA16099   7.248   7.055   7.350 -2.8315 -0.1954  1.6463
  147SAPE    HB16100   7.265   6.929   7.466  2.8665 -0.2105 -0.4441
  147SAPE    C216101   7.370   6.871   7.291  0.2392  0.5210 -0.2305
  147SAPE    HS16102   7.456   6.919   7.343  0.1042  0.0334  0.4581
  147SAPE   O2116103   7.361   6.902   7.156  0.4638 -0.2815  0.4594
  147SAPE   C2116104   7.400   7.025   7.120 -0.4169  0.1606 -0.3966
  147SAPE   O2216105   7.454   7.103   7.191  0.9122 -0.1712  0.0442
  147SAPE   C2216106   7.350   7.044   6.974 -0.8952 -0.2818  0.4145
  147SAPE   H2R16107   7.356   6.946   6.922 -0.1320  0.8790 -1.8122
  147SAPE   H2S16108   7.241   7.065   6.983 -0.7487  0.2381  1.0009
  147SAPE    C316109   7.362   6.723   7.329 -0.0297  0.6281  0.1136
  147SAPE    HX16110   7.274   6.684   7.273 -0.2053  1.2958 -0.0904
  147SAPE    HY16111   7.359   6.712   7.439 -0.5155 -0.4547  0.0023
  147SAPE   O3116112   7.478   6.647   7.292 -0.0514  0.2239  0.1057
  147SAPE   C3116113   7.478   6.590   7.170 -0.4044 -0.0698 -0.3466
  147SAPE   O3216114   7.385   6.599   7.089 -0.1923 -0.3461 -0.0079
  147SAPE   C3216115   7.606   6.511   7.156 -0.6775 -0.9444 -0.0992
  147SAPE   H2X16116   7.592   6.420   7.094  1.1614 -0.7070 -0.9341
  147SAPE   H2Y16117   7.652   6.497   7.256  1.2916  2.4085 -0.3803
  147SAPE   C2316118   7.417   7.153   6.886  0.2820 -0.0762 -0.2412
  147SAPE   H3R16119   7.528   7.143   6.877  0.3479  1.4873 -1.6219
  147SAPE   H3S16120   7.395   7.248   6.940 -1.5934 -0.5524 -0.1039
  147SAPE   C2416121   7.357   7.167   6.743  0.2481  0.2372  0.6064
  147SAPE   H4R16122   7.378   7.267   6.699  0.9729 -1.1302 -2.3475
  147SAPE   H4S16123   7.246   7.160   6.754 -0.0240 -0.7477 -2.1652
  147SAPE   C2516124   7.404   7.045   6.658 -0.6328 -0.0766 -0.4200
  147SAPE   H5R16125   7.392   6.949   6.710 -1.8807  1.2521  1.9786
  147SAPE   C2616126   7.461   7.054   6.534 -0.7265  0.0609 -0.0239
  147SAPE   H6R16127   7.489   6.960   6.484  1.0304  0.5944 -0.1312
  147SAPE   C2716128   7.465   7.182   6.450 -0.1509 -0.1767 -0.7617
  147SAPE   H7R16129   7.499   7.263   6.518  1.6999 -0.6859 -1.0302
  147SAPE   H7S16130   7.362   7.205   6.415 -1.3999 -1.2653  1.9086
  147SAPE   C2816131   7.554   7.176   6.335  0.0264 -0.7073 -0.2847
  147SAPE   H8R16132   7.650   7.227   6.353  0.8515 -3.1846  3.3757
  147SAPE   C2916133   7.529   7.141   6.212  0.3659  0.7637 -0.2734
  147SAPE   H9R16134   7.607   7.133   6.135 -0.3458  3.0672 -1.3320
  147SAPE  C21016135   7.397   7.099   6.160  0.2090  0.2513 -0.1823
  147SAPE  H10R16136   7.321   7.075   6.237  1.3588 -2.9895  0.1214
  147SAPE  H10S16137   7.411   7.002   6.108 -1.8576  0.9843 -2.2489
  147SAPE  C21116138   7.336   7.201   6.059 -0.2592 -0.0526  0.5736
  147SAPE  H11R16139   7.322   7.302   6.101 -0.6542 -0.8254  2.4061
  147SAPE  C21216140   7.305   7.172   5.930  0.7515 -0.9112  0.0213
  147SAPE  H12R16141   7.249   7.246   5.871 -1.6986 -3.6324 -1.3649
  147SAPE  C21316142   7.304   7.037   5.860 -0.3838 -0.5328 -0.4525
  147SAPE  H13R16143   7.267   6.961   5.932 -2.3435  0.8607  0.0894
  147SAPE  H13S16144   7.409   7.019   5.828  0.3962 -0.9598  2.0575
  147SAPE  C21416145   7.212   7.041   5.732 -0.6562  0.2575 -0.4788
  147SAPE  H14R16146   7.122   6.981   5.749  0.8150 -2.1980 -0.9520
  147SAPE  C21516147   7.235   7.106   5.615 -0.1839 -0.0560  0.2956
  147SAPE  H15R16148   7.169   7.098   5.527  0.8696 -2.1132 -0.3893
  147SAPE  C21616149   7.367   7.186   5.588  0.1390 -0.8316 -0.3188
  147SAPE  H16R16150   7.425   7.198   5.681 -0.9311  0.4753  0.2112
  147SAPE  H16S16151   7.336   7.285   5.548 -0.3238 -0.8666 -0.0577
  147SAPE  C21716152   7.455   7.113   5.481 -0.0563 -0.4902  0.6824
  147SAPE  H17R16153   7.391   7.107   5.391 -0.2682  1.4575  0.6487
  147SAPE  H17S16154   7.490   7.011   5.506 -1.1876 -0.9895  0.2596
  147SAPE  C21816155   7.581   7.197   5.445 -0.2431 -0.2788 -0.7667
  147SAPE  H18R16156   7.645   7.207   5.536  0.5132 -2.3102 -1.0357
  147SAPE  H18S16157   7.544   7.294   5.405 -1.0502  0.0058  0.5775
  147SAPE  C21916158   7.659   7.124   5.338 -0.2002 -0.5954  0.2270
  147SAPE  H19R16159   7.588   7.077   5.267 -0.6712 -2.7928  2.0245
  147SAPE  H19S16160   7.697   7.028   5.381 -1.1646 -0.7759  0.7146
  147SAPE  C22016161   7.767   7.212   5.284  0.3748  0.0721  0.1716
  147SAPE  H20R16162   7.823   7.158   5.205 -0.6956 -2.0232  0.7723
  147SAPE  H20S16163   7.833   7.243   5.368  2.3689 -0.8343 -0.9872
  147SAPE  H20T16164   7.737   7.310   5.242 -2.6857 -0.1426  1.6230
  147SAPE   C3316165   7.708   6.590   7.069 -0.9301 -0.7532 -0.7486
  147SAPE   H3X16166   7.809   6.544   7.063  0.8280  2.7244 -0.7570
  147SAPE   H3Y16167   7.728   6.690   7.114  1.0682 -0.3003 -2.4844
  147SAPE   C3416168   7.650   6.618   6.928  0.2984  0.6199 -0.5890
  147SAPE   H4X16169   7.570   6.695   6.921  1.1101  1.4198 -1.4497
  147SAPE   H4Y16170   7.610   6.520   6.895  1.7844  0.1313 -1.0428
  147SAPE   C3516171   7.749   6.645   6.819  0.0712  0.1611 -0.2564
  147SAPE   H5X16172   7.834   6.574   6.826 -0.2032 -0.3456 -1.7304
  147SAPE   H5Y16173   7.789   6.749   6.808  1.4109 -0.5610 -3.3288
  147SAPE   C3616174   7.682   6.613   6.683 -0.1194  0.0268  0.4198
  147SAPE   H6X16175   7.611   6.694   6.658  0.4842 -0.1619 -2.2859
  147SAPE   H6Y16176   7.628   6.516   6.687 -0.4276  0.2221  1.1466
  147SAPE   C3716177   7.783   6.605   6.570 -0.5279  0.3581  0.6620
  147SAPE   H7X16178   7.849   6.519   6.591  1.3274  2.2038  3.0193
  147SAPE   H7Y16179   7.839   6.701   6.570  1.0054 -0.4660  2.6376
  147SAPE   C3816180   7.724   6.589   6.422  0.4172 -0.1830 -1.1012
  147SAPE   H8X16181   7.682   6.487   6.409 -2.2166  0.6511  0.2285
  147SAPE   H8Y16182   7.815   6.598   6.358  2.6628  0.8412  1.9737
  147SAPE   C3916183   7.621   6.700   6.402 -0.4959  0.2747 -0.1566
  147SAPE   H9X16184   7.637   6.784   6.472 -1.0594  2.2687 -2.3030
  147SAPE   H9Y16185   7.520   6.658   6.424 -0.2733 -0.0303  0.2957
  147SAPE  C31016186   7.620   6.750   6.257 -0.2198  0.0051 -0.5434
  147SAPE  H10X16187   7.710   6.812   6.237 -0.3425  0.2005 -0.4988
  147SAPE  H10Y16188   7.531   6.817   6.254 -0.0136  0.5059  2.0041
  147SAPE  C31116189   7.609   6.634   6.158  0.2079  1.2243  0.0011
  147SAPE  H11X16190   7.534   6.565   6.202  0.1688 -0.2345 -2.1682
  147SAPE  H11Y16191   7.709   6.585   6.158  0.6028  1.9947  0.9359
  147SAPE  C31216192   7.571   6.682   6.025  0.4677 -0.6681  0.0089
  147SAPE  H12X16193   7.471   6.730   6.038  1.6070  1.5025  1.4798
  147SAPE  H12Y16194   7.565   6.594   5.958  0.3685  0.0281 -0.9257
  147SAPE  C31316195   7.672   6.783   5.965  0.7725  0.3898  0.1211
  147SAPE  H13X16196   7.771   6.734   5.962  1.5765  1.9771 -1.6312
  147SAPE  H13Y16197   7.679   6.872   6.032 -1.9267  0.0417  0.9827
  147SAPE  C31416198   7.635   6.824   5.821  0.6810  0.0606 -0.7382
  147SAPE  H14X16199   7.691   6.917   5.796 -0.4145  1.1309  0.6646
  147SAPE  H14Y16200   7.526   6.842   5.822  0.8095  1.1690 -2.2638
  147SAPE  C31516201   7.675   6.714   5.720  0.6430  0.0013  0.0713
  147SAPE  H15X16202   7.647   6.613   5.756 -4.8581  0.1484 -2.7253
  147SAPE  H15Y16203   7.785   6.720   5.709  0.7818 -0.0909  1.2341
  147SAPE  C31616204   7.591   6.736   5.591 -0.1562  0.2534  0.1781
  147SAPE  H16X16205   7.638   6.678   5.509 -1.1441  0.7273 -0.7614
  147SAPE  H16Y16206   7.596   6.846   5.574  0.7828 -0.0712 -1.8231
  147SAPE  C31716207   7.447   6.688   5.615 -0.1101 -0.5420 -0.3976
  147SAPE  H17X16208   7.407   6.738   5.706  0.3747  0.1065 -0.5344
  147SAPE  H17Y16209   7.452   6.581   5.645  2.3545 -0.7942 -1.4692
  147SAPE  C31816210   7.359   6.701   5.495 -0.0885  0.1906 -0.2314
  147SAPE  H18X16211   7.377   6.801   5.450  0.8656 -0.2281 -0.7961
  147SAPE  H18Y16212   7.248   6.708   5.504  0.0331  0.5588  1.2654
  147SAPE  H18Z16213   7.381   6.629   5.414 -0.1671  0.1861 -0.2490
  148SAPE     N16214   4.228   0.324   7.837 -0.5042 -0.2883 -0.0629
  148SAPE   HN116215   4.125   0.336   7.840 -0.4278  0.8084 -1.0930
  148SAPE   HN216216   4.277   0.274   7.914  1.7129 -0.5882 -1.5392
  148SAPE   HN316217   4.276   0.415   7.827  1.7376 -1.5621 -2.0712
  148SAPE   C1216218   4.250   0.223   7.728  0.0680 -0.1448 -0.2284
  148SAPE  H12A16219   4.189   0.262   7.644  0.5142 -0.1574 -0.5673
  148SAPE  H12B16220   4.213   0.123   7.760  0.3565 -1.0489 -2.5348
  148SAPE   C1116221   4.405   0.211   7.699 -0.0066  0.7354  0.7580
  148SAPE  H11A16222   4.435   0.305   7.649 -1.6841  0.1595 -1.4733
  148SAPE  H11B16223   4.420   0.134   7.621  0.4987  1.3726  0.2193
  148SAPE     P16224   4.517   0.051   7.869  0.3086 -0.1388 -0.1230
  148SAPE   O1316225   4.573   0.064   8.009 -0.5037 -0.0515  0.3715
  148SAPE   O1416226   4.403  -0.046   7.847 -0.0974 -0.4259  0.6465
  148SAPE   O1216227   4.476   0.196   7.822  0.3964 -0.1806 -0.1763
  148SAPE   O1116228   4.633   0.011   7.770 -0.1636  0.4260  0.2330
  148SAPE    C116229   4.761   0.076   7.773  0.0558  0.1240  0.0963
  148SAPE    HA16230   4.741   0.185   7.762 -0.1349  0.0749 -0.0320
  148SAPE    HB16231   4.823   0.051   7.862  0.2286  0.8578  0.1876
  148SAPE    C216232   4.858   0.044   7.653  0.7139 -0.1948  0.1121
  148SAPE    HS16233   4.891   0.143   7.615 -2.7910  0.8338 -0.5902
  148SAPE   O2116234   4.787  -0.029   7.553  0.0173  0.5076 -0.6790
  148SAPE   C2116235   4.710   0.047   7.468 -0.5949 -0.9991 -0.0718
  148SAPE   O2216236   4.702   0.168   7.472 -0.3273 -0.0268 -0.3747
  148SAPE   C2216237   4.649  -0.035   7.362  0.5155 -0.1912 -0.2250
  148SAPE   H2R16238   4.713  -0.021   7.272 -0.9464  1.5065 -1.0593
  148SAPE   H2S16239   4.653  -0.141   7.394 -0.4365  0.5036  2.5556
  148SAPE    C316240   4.993  -0.028   7.699  0.2329 -0.4404  0.2686
  148SAPE    HX16241   4.976  -0.123   7.753  0.7035 -1.3960 -1.2061
  148SAPE    HY16242   5.053   0.039   7.765 -0.6100  0.6640 -0.0526
  148SAPE   O3116243   5.061  -0.082   7.582 -0.0481 -0.1370  0.4524
  148SAPE   C3116244   5.133   0.004   7.515  0.2688  0.1533 -0.0919
  148SAPE   O3216245   5.151   0.119   7.542 -0.1674  0.0148  0.4770
  148SAPE   C3216246   5.191  -0.061   7.392  0.0924 -0.0242 -0.0000
  148SAPE   H2X16247   5.179  -0.171   7.404  1.6644 -0.1977  0.0781
  148SAPE   H2Y16248   5.298  -0.033   7.397 -0.4574  2.5092 -0.8722
  148SAPE   C2316249   4.500   0.002   7.352  0.9484  0.2896  0.1358
  148SAPE   H3R16250   4.478   0.111   7.358 -0.6890  0.2189 -2.7919
  148SAPE   H3S16251   4.445  -0.048   7.435  0.1026 -0.6158 -0.9391
  148SAPE   C2416252   4.420  -0.051   7.229 -0.3711  0.3247  0.0905
  148SAPE   H4R16253   4.323  -0.002   7.251 -1.3399 -0.9147 -1.2491
  148SAPE   H4S16254   4.407  -0.161   7.232 -2.1053  0.5209  1.8150
  148SAPE   C2516255   4.469   0.010   7.095  0.4092  0.4722  0.5890
  148SAPE   H5R16256   4.545  -0.046   7.038  1.1206  3.3520 -1.4974
  148SAPE   C2616257   4.417   0.123   7.038  1.0866  0.0291  0.9863
  148SAPE   H6R16258   4.462   0.149   6.941  1.6457  1.1422  1.5303
  148SAPE   C2716259   4.297   0.211   7.078 -0.2601 -0.0828 -0.3648
  148SAPE   H7R16260   4.227   0.161   7.148  1.4447 -0.3517  1.2349
  148SAPE   H7S16261   4.240   0.205   6.983 -3.5399 -1.8246  1.5597
  148SAPE   C2816262   4.339   0.349   7.125  0.0192  0.4828  0.0858
  148SAPE   H8R16263   4.447   0.345   7.146 -0.0559 -1.5149  0.2484
  148SAPE   C2916264   4.269   0.456   7.121  0.2889 -0.6851 -0.1910
  148SAPE   H9R16265   4.314   0.549   7.158  1.5494 -0.6270 -1.7896
  148SAPE  C21016266   4.124   0.474   7.073 -0.2197 -0.1711  0.1604
  148SAPE  H10R16267   4.101   0.403   6.990 -0.1147  0.6242 -0.5706
  148SAPE  H10S16268   4.131   0.576   7.030  3.5469 -0.9881 -1.6105
  148SAPE  C21116269   4.019   0.458   7.174  0.7417 -0.5227  0.1740
  148SAPE  H11R16270   4.038   0.466   7.282 -0.4966 -1.1630  0.4518
  148SAPE  C21216271   3.889   0.447   7.151  0.1551 -0.8145  1.2618
  148SAPE  H12R16272   3.832   0.450   7.245  0.3202  1.4807  1.3487
  148SAPE  C21316273   3.812   0.464   7.016 -0.0628 -0.0911 -0.5241
  148SAPE  H13R16274   3.879   0.446   6.929 -0.7106  1.2712 -1.3360
  148SAPE  H13S16275   3.795   0.573   7.003 -1.2179 -0.0321  1.1908
  148SAPE  C21416276   3.681   0.395   7.001 -0.8486 -0.3140  0.0749
  148SAPE  H14R16277   3.635   0.370   7.097 -0.3621 -0.5861  0.2430
  148SAPE  C21516278   3.609   0.373   6.884 -0.3971  0.1249  0.0962
  148SAPE  H15R16279   3.515   0.315   6.882 -0.5112  0.3139 -0.5457
  148SAPE  C21616280   3.651   0.404   6.743 -0.1043 -0.1706 -0.0785
  148SAPE  H16R16281   3.761   0.392   6.732 -0.0950  0.6509 -1.0232
  148SAPE  H16S16282   3.627   0.508   6.713  0.3243  0.0972  0.4718
  148SAPE  C21716283   3.575   0.315   6.648 -0.3706 -0.9778  0.2100
  148SAPE  H17R16284   3.464   0.325   6.657 -0.2968 -1.5903  2.6203
  148SAPE  H17S16285   3.600   0.211   6.676  0.8192 -1.3911 -2.1996
  148SAPE  C21816286   3.614   0.351   6.502 -0.6330 -0.3127 -0.2187
  148SAPE  H18R16287   3.719   0.314   6.492 -0.6716 -0.5464  0.2029
  148SAPE  H18S16288   3.624   0.460   6.483  3.1475 -0.3348  0.7605
  148SAPE  C21916289   3.526   0.280   6.400  0.1216  0.2477 -0.1928
  148SAPE  H19R16290   3.431   0.337   6.401  0.5242  0.9318 -0.2331
  148SAPE  H19S16291   3.498   0.177   6.430  1.6079 -1.0982 -2.9685
  148SAPE  C22016292   3.591   0.270   6.262  0.2660  0.1585 -0.2863
  148SAPE  H20R16293   3.533   0.221   6.180  0.1744  1.5304 -1.0765
  148SAPE  H20S16294   3.682   0.208   6.273  0.8754  0.0731 -4.3365
  148SAPE  H20T16295   3.608   0.374   6.228 -0.2437  0.3789  0.1110
  148SAPE   C3316296   5.122  -0.025   7.261  0.2090 -0.0077 -0.3695
  148SAPE   H3X16297   5.135   0.085   7.248  0.0881 -0.1455 -1.9071
  148SAPE   H3Y16298   5.014  -0.052   7.267  0.3431 -0.3177  0.9929
  148SAPE   C3416299   5.199  -0.082   7.150 -0.4133  0.3043 -0.0495
  148SAPE   H4X16300   5.179  -0.191   7.142 -1.3343  0.6112 -2.8932
  148SAPE   H4Y16301   5.308  -0.066   7.155 -0.0868 -0.7987 -2.4322
  148SAPE   C3516302   5.154  -0.011   7.018  0.3156 -0.4363  0.1400
  148SAPE   H5X16303   5.162   0.098   7.032  0.2169 -0.3973 -0.1070
  148SAPE   H5Y16304   5.046  -0.034   7.009 -0.1309  0.6803  2.1665
  148SAPE   C3616305   5.227  -0.050   6.890  0.4174 -0.4106  0.3510
  148SAPE   H6X16306   5.208  -0.158   6.870 -0.3655  0.1093 -2.0978
  148SAPE   H6Y16307   5.336  -0.031   6.898  0.3208  0.6935 -0.6173
  148SAPE   C3716308   5.159   0.018   6.778 -0.0398  0.3270 -0.2204
  148SAPE   H7X16309   5.143   0.126   6.800 -0.1478  0.3630 -0.4663
  148SAPE   H7Y16310   5.069  -0.039   6.748 -0.0226 -0.0622  0.4505
  148SAPE   C3816311   5.245   0.013   6.648 -0.1808 -0.2157 -0.2526
  148SAPE   H8X16312   5.262  -0.093   6.622 -2.4510 -0.9825  1.0928
  148SAPE   H8Y16313   5.340   0.066   6.672 -1.2718  1.8032 -0.1679
  148SAPE   C3916314   5.180   0.090   6.529  0.1699 -0.2013 -0.4757
  148SAPE   H9X16315   5.177   0.199   6.552  0.5166 -0.3921  0.5485
  148SAPE   H9Y16316   5.076   0.055   6.511  0.4283 -0.5458 -1.3170
  148SAPE  C31016317   5.268   0.073   6.403 -0.4736 -0.0403 -0.3068
  148SAPE  H10X16318   5.260  -0.034   6.372  1.4416  0.0444 -1.2161
  148SAPE  H10Y16319   5.374   0.089   6.430  0.2066 -1.1077 -2.0883
  148SAPE  C31116320   5.234   0.176   6.296 -0.9230 -0.3102 -0.3651
  148SAPE  H11X16321   5.275   0.273   6.331  0.8950 -0.6334 -1.5097
  148SAPE  H11Y16322   5.123   0.185   6.288 -1.0182  0.3977  1.3879
  148SAPE  C31216323   5.315   0.149   6.171 -0.4150  0.0771 -0.2647
  148SAPE  H12X16324   5.284   0.051   6.130 -0.0996 -1.5727  3.0377
  148SAPE  H12Y16325   5.424   0.149   6.191 -0.5386  0.2589  0.4500
  148SAPE  C31316326   5.284   0.247   6.060  0.0961  0.4760  0.4723
  148SAPE  H13X16327   5.286   0.350   6.102 -2.2339  0.7157  0.1408
  148SAPE  H13Y16328   5.178   0.223   6.037  0.8407 -1.4330 -1.3059
  148SAPE  C31416329   5.376   0.239   5.938  0.5519  0.3121  0.1568
  148SAPE  H14X16330   5.379   0.130   5.921 -2.3764  0.0151  0.9852
  148SAPE  H14Y16331   5.480   0.268   5.967  0.5920 -1.0913  1.5664
  148SAPE  C31516332   5.318   0.304   5.816 -0.1048  0.3859 -0.5151
  148SAPE  H15X16333   5.296   0.406   5.853 -0.1328 -0.3834  1.7234
  148SAPE  H15Y16334   5.221   0.257   5.787 -1.4404  1.8132  1.3555
  148SAPE  C31616335   5.416   0.311   5.704  0.0095 -0.1214  0.6782
  148SAPE  H16X16336   5.457   0.209   5.688 -0.6291 -0.2035 -0.5215
  148SAPE  H16Y16337   5.502   0.373   5.736  0.9239 -0.3028 -1.3180
  148SAPE  C31716338   5.359   0.360   5.568 -0.1761 -0.3276  0.0124
  148SAPE  H17X16339   5.272   0.295   5.544 -1.7198  1.7906 -0.3884
  148SAPE  H17Y16340   5.437   0.350   5.490 -0.5541 -0.0161 -0.4152
  148SAPE  C31816341   5.318   0.508   5.575  0.5820  0.6424 -0.4652
  148SAPE  H18X16342   5.294   0.545   5.472 -2.7965 -1.0219 -0.4294
  148SAPE  H18Y16343   5.409   0.566   5.602  3.8080 -3.7731 -0.7122
  148SAPE  H18Z16344   5.230   0.523   5.640  0.1187 -0.0535 -0.9100
  149SAPE     N16345   0.064   3.681   7.630  0.7826 -0.0396  0.6123
  149SAPE   HN116346   0.122   3.730   7.700  0.9323 -2.0752  2.0133
  149SAPE   HN216347   0.116   3.659   7.543 -0.0721  0.5468 -0.0640
  149SAPE   HN316348   0.000   3.758   7.600  0.5695  0.1709  1.5836
  149SAPE   C1216349  -0.034   3.588   7.689  0.7262 -0.5844  0.0133
  149SAPE  H12A16350  -0.096   3.555   7.603  1.4806 -0.9701 -0.3988
  149SAPE  H12B16351  -0.101   3.627   7.768 -1.4244 -1.6559 -1.1965
  149SAPE   C1116352   0.055   3.478   7.740 -0.6250 -0.5457 -0.6369
  149SAPE  H11A16353   0.000   3.408   7.807 -2.7186  1.6260  0.0591
  149SAPE  H11B16354   0.126   3.524   7.812 -0.5499  2.7587 -2.5939
  149SAPE     P16355   0.077   3.269   7.591 -0.0365  0.1165  0.3871
  149SAPE   O1316356   0.162   3.166   7.651  0.0019  0.6364  0.1289
  149SAPE   O1416357  -0.067   3.250   7.619 -0.2862  0.1407  0.0548
  149SAPE   O1216358   0.123   3.402   7.639 -0.3562  0.8514 -0.3833
  149SAPE   O1116359   0.100   3.271   7.437  0.1414 -0.7331 -0.2519
  149SAPE    C116360   0.096   3.391   7.363  0.0764 -0.3210 -0.2259
  149SAPE    HA16361   0.030   3.472   7.400  0.3049 -0.2304 -0.0084
  149SAPE    HB16362   0.193   3.445   7.361  0.5231 -1.0505  0.6221
  149SAPE    C216363   0.057   3.344   7.222 -0.1907 -0.5192 -0.0992
  149SAPE    HS16364  -0.044   3.300   7.212  0.5055 -2.4898  0.9213
  149SAPE   O2116365   0.163   3.266   7.173 -0.0742 -0.6114  0.5429
  149SAPE   C2116366   0.124   3.153   7.113 -0.2079 -0.4817  0.1955
  149SAPE   O2216367   0.010   3.110   7.109 -0.3459  0.4544  0.1467
  149SAPE   C2216368   0.252   3.101   7.047 -0.0632 -0.6320 -0.4801
  149SAPE   H2R16369   0.306   3.182   6.993 -3.2151  2.1064  0.1817
  149SAPE   H2S16370   0.310   3.058   7.131  2.1275 -0.7435 -1.9540
  149SAPE    C316371   0.065   3.459   7.115  0.2257  0.3474 -0.1433
  149SAPE    HX16372   0.162   3.512   7.125  0.2382  0.6155 -1.4631
  149SAPE    HY16373  -0.018   3.530   7.134 -0.6797 -0.8948  0.7845
  149SAPE   O3116374   0.056   3.404   6.979 -0.1431 -0.0125 -0.0453
  149SAPE   C3116375   0.115   3.488   6.893  0.9711 -0.6252  0.0824
  149SAPE   O3216376   0.166   3.595   6.918 -0.0704 -0.3416 -0.8871
  149SAPE   C3216377   0.107   3.425   6.749  0.3885 -0.0958  0.4916
  149SAPE   H2X16378   0.001   3.437   6.715  0.0847 -0.0489  1.4362
  149SAPE   H2Y16379   0.117   3.315   6.752 -2.3755 -0.4208  0.8232
  149SAPE   C2316380   0.232   2.978   6.961  0.9573 -0.1119 -0.1440
  149SAPE   H3R16381   0.168   2.906   7.016 -0.8676  0.8596 -0.8986
  149SAPE   H3S16382   0.331   2.933   6.940  1.2042  0.4418 -0.1813
  149SAPE   C2416383   0.161   3.012   6.828  0.7049  0.1500  0.3374
  149SAPE   H4R16384   0.072   3.074   6.852 -0.2058 -0.4609 -1.2819
  149SAPE   H4S16385   0.134   2.914   6.783  4.8265  0.1309 -2.6623
  149SAPE   C2516386   0.252   3.082   6.729  0.4837 -0.3343  0.4354
  149SAPE   H5R16387   0.324   3.144   6.784 -0.2988  1.2990 -0.3147
  149SAPE   C2616388   0.271   3.049   6.595 -0.3242  1.0312 -0.1059
  149SAPE   H6R16389   0.319   3.125   6.532  1.3661  1.1847  1.3119
  149SAPE   C2716390   0.192   2.950   6.512  0.5367 -0.1250 -0.2868
  149SAPE   H7R16391   0.108   3.004   6.463  1.2428 -1.3019 -3.0197
  149SAPE   H7S16392   0.154   2.862   6.568 -2.0744  1.6467  0.9018
  149SAPE   C2816393   0.276   2.894   6.402 -0.2039 -0.1429 -0.6873
  149SAPE   H8R16394   0.331   2.811   6.449 -0.7409  0.1370  0.4783
  149SAPE   C2916395   0.308   2.937   6.279 -0.0577 -0.1857  0.1146
  149SAPE   H9R16396   0.375   2.875   6.219 -0.4037 -1.1291  0.6864
  149SAPE  C21016397   0.261   3.062   6.205 -0.2129  0.4392 -0.5733
  149SAPE  H10R16398   0.163   3.090   6.248  1.4626  0.8128  3.4524
  149SAPE  H10S16399   0.240   3.025   6.102  0.4402 -3.4192  0.5130
  149SAPE  C21116400   0.348   3.184   6.221 -0.6260  0.4638 -0.3899
  149SAPE  H11R16401   0.332   3.242   6.313  0.4616 -1.2480  0.9277
  149SAPE  C21216402   0.429   3.230   6.121 -0.0985 -0.2198  0.7893
  149SAPE  H12R16403   0.470   3.330   6.141 -1.2037 -0.1699  3.2227
  149SAPE  C21316404   0.472   3.162   5.989  0.8299  0.2049 -0.6752
  149SAPE  H13R16405   0.382   3.107   5.955  1.5193 -0.4334 -1.5129
  149SAPE  H13S16406   0.547   3.081   6.005  0.3246  0.0441  1.1225
  149SAPE  C21416407   0.519   3.265   5.889 -0.2486  0.1749 -0.6648
  149SAPE  H14R16408   0.462   3.359   5.888 -1.7622 -0.6897 -2.7510
  149SAPE  C21516409   0.631   3.262   5.816 -0.4506  0.6253 -0.2902
  149SAPE  H15R16410   0.649   3.347   5.748 -0.7946 -0.0815 -1.2839
  149SAPE  C21616411   0.723   3.147   5.795 -0.5528 -0.6213 -0.0570
  149SAPE  H16R16412   0.692   3.057   5.852  1.1730 -0.7112  0.8069
  149SAPE  H16S16413   0.828   3.166   5.824 -0.4809 -0.0258 -0.6732
  149SAPE  C21716414   0.734   3.124   5.642 -0.0732  0.4968  0.0629
  149SAPE  H17R16415   0.637   3.110   5.589  0.1148 -0.4743 -0.0382
  149SAPE  H17S16416   0.781   3.023   5.640 -0.9740  0.0750 -0.4117
  149SAPE  C21816417   0.813   3.237   5.571  0.3751  0.3974  0.8702
  149SAPE  H18R16418   0.897   3.277   5.632 -0.7584 -0.9357  3.4525
  149SAPE  H18S16419   0.748   3.325   5.554 -0.7124 -0.6431 -0.6637
  149SAPE  C21916420   0.859   3.201   5.430 -0.1358  0.4078  0.0260
  149SAPE  H19R16421   0.910   3.284   5.377 -2.7493  1.1909 -1.4088
  149SAPE  H19S16422   0.760   3.198   5.380 -0.0128 -1.1495 -0.1782
  149SAPE  C22016423   0.924   3.053   5.397 -0.1482 -0.4667 -0.7617
  149SAPE  H20R16424   1.030   3.053   5.430  0.3437 -1.7718 -2.1875
  149SAPE  H20S16425   0.926   3.031   5.288  1.4435 -0.1361 -0.8187
  149SAPE  H20T16426   0.869   2.973   5.452  0.8105  0.4661  1.6694
  149SAPE   C3316427   0.204   3.493   6.656 -0.3935  0.6271 -0.5022
  149SAPE   H3X16428   0.311   3.473   6.678  0.3232 -0.9140 -4.4420
  149SAPE   H3Y16429   0.190   3.603   6.669 -1.1965  0.4898 -0.2075
  149SAPE   C3416430   0.171   3.468   6.513 -0.3519  0.2551 -0.3285
  149SAPE   H4X16431   0.069   3.504   6.492 -1.8634 -1.6901  2.9143
  149SAPE   H4Y16432   0.181   3.358   6.496  1.0705  0.3154 -0.0405
  149SAPE   C3516433   0.278   3.529   6.420  0.3438 -0.9325 -0.0900
  149SAPE   H5X16434   0.364   3.459   6.423 -0.6918 -2.2060  0.5001
  149SAPE   H5Y16435   0.310   3.622   6.473  0.0822 -0.9618  0.1154
  149SAPE   C3616436   0.229   3.540   6.278 -0.4015  0.1122  0.2571
  149SAPE   H6X16437   0.129   3.586   6.283 -0.4913 -0.0679  0.1350
  149SAPE   H6Y16438   0.217   3.436   6.239  0.7844 -0.1615  0.5806
  149SAPE   C3716439   0.324   3.618   6.184 -0.0151 -0.0837 -0.0162
  149SAPE   H7X16440   0.419   3.572   6.218  1.5840  2.6740 -0.4322
  149SAPE   H7Y16441   0.315   3.729   6.194 -2.0109 -0.0549 -1.5460
  149SAPE   C3816442   0.303   3.598   6.032  0.3285 -0.2708 -0.1984
  149SAPE   H8X16443   0.202   3.638   6.012  0.6817  0.1684 -1.1807
  149SAPE   H8Y16444   0.294   3.488   6.023 -0.9039 -0.1457 -0.6481
  149SAPE   C3916445   0.407   3.661   5.943 -0.1007  0.5308  0.4872
  149SAPE   H9X16446   0.506   3.619   5.972  0.1735 -1.7253 -3.1026
  149SAPE   H9Y16447   0.410   3.770   5.962  0.6907  0.3784  1.3084
  149SAPE  C31016448   0.386   3.618   5.797 -0.4369 -0.3225  0.0504
  149SAPE  H10X16449   0.287   3.654   5.761  1.0592  1.0396 -3.1531
  149SAPE  H10Y16450   0.397   3.508   5.793 -1.0758 -0.5372  2.4534
  149SAPE  C31116451   0.496   3.675   5.714 -0.5203 -0.5788  0.4189
  149SAPE  H11X16452   0.599   3.653   5.751 -0.7290  0.9441  2.0241
  149SAPE  H11Y16453   0.493   3.785   5.724  2.7924 -0.3208 -0.3518
  149SAPE  C31216454   0.489   3.630   5.566  0.2661  0.8605 -0.8282
  149SAPE  H12X16455   0.390   3.651   5.522 -0.1333 -0.2524 -0.4905
  149SAPE  H12Y16456   0.510   3.521   5.568  2.3221  1.2078 -1.3245
  149SAPE  C31316457   0.598   3.698   5.483  0.6145  0.4712 -0.4438
  149SAPE  H13X16458   0.703   3.695   5.520  1.2041  2.4592 -1.8001
  149SAPE  H13Y16459   0.580   3.805   5.463 -0.9515  0.2528 -0.2825
  149SAPE  C31416460   0.602   3.628   5.351  0.1442  0.6100  0.5541
  149SAPE  H14X16461   0.622   3.519   5.354  1.9845  0.9221  0.8733
  149SAPE  H14Y16462   0.688   3.669   5.294  0.1290 -0.8089 -0.5476
  149SAPE  C31516463   0.478   3.656   5.255  0.4035 -0.2544 -0.3642
  149SAPE  H15X16464   0.465   3.764   5.234  0.3137 -0.0545  0.6539
  149SAPE  H15Y16465   0.387   3.623   5.310  1.0972  2.2724  2.5782
  149SAPE  C31616466   0.472   3.561   5.129  0.0907  0.4866 -0.2801
  149SAPE  H16X16467   0.384   3.559   5.061  0.8147 -0.3679 -1.2335
  149SAPE  H16Y16468   0.470   3.455   5.162 -0.3799 -0.0762 -1.9993
  149SAPE  C31716469   0.591   3.577   5.034 -0.5619  0.0389 -0.6141
  149SAPE  H17X16470   0.571   3.513   4.946 -0.2265  1.9381 -2.1464
  149SAPE  H17Y16471   0.674   3.518   5.077 -0.1744  0.6954 -0.4461
  149SAPE  C31816472   0.637   3.721   4.998  0.1759  0.0608  0.2507
  149SAPE  H18X16473   0.709   3.710   4.913 -2.9139 -0.9929 -2.4354
  149SAPE  H18Y16474   0.697   3.756   5.085  1.7835 -1.0441 -0.3559
  149SAPE  H18Z16475   0.557   3.793   4.972 -0.8048 -1.1999 -0.3314
  150SAPE     N16476   4.884   4.209   7.617  0.1305  0.0178 -0.1249
  150SAPE   HN116477   4.892   4.312   7.631  1.9693 -0.1749  0.6071
  150SAPE   HN216478   4.901   4.175   7.520 -0.0664 -0.7358  0.1000
  150SAPE   HN316479   4.784   4.185   7.630 -0.4644  2.2777 -0.0041
  150SAPE   C1216480   4.968   4.137   7.711  0.0743  0.4420 -0.0993
  150SAPE  H12A16481   4.958   4.182   7.812 -1.7045  2.0401 -0.9287
  150SAPE  H12B16482   5.075   4.161   7.693  0.1739  1.4645  1.6328
  150SAPE   C1116483   4.950   3.985   7.715  0.0675  0.3462 -0.1274
  150SAPE  H11A16484   4.860   3.968   7.779  0.5305  0.2271  0.5012
  150SAPE  H11B16485   5.042   3.957   7.771  1.1110  3.3646 -0.1416
  150SAPE     P16486   4.941   3.752   7.605 -0.0932 -0.0870 -0.4785
  150SAPE   O1316487   5.042   3.684   7.523  0.1513 -0.3397  0.3665
  150SAPE   O1416488   4.949   3.717   7.751 -0.0259  0.2834  0.7363
  150SAPE   O1216489   4.951   3.915   7.592 -0.0031  0.4602  0.0272
  150SAPE   O1116490   4.798   3.728   7.546  0.1681  0.0554  0.6960
  150SAPE    C116491   4.699   3.824   7.522  0.2399 -0.5972  0.0943
  150SAPE    HA16492   4.599   3.778   7.527 -0.0729  0.1261  0.6962
  150SAPE    HB16493   4.700   3.896   7.607  0.7798 -1.8095  1.1452
  150SAPE    C216494   4.717   3.908   7.395  0.1263 -0.0297 -0.2031
  150SAPE    HS16495   4.791   3.988   7.415  1.1634 -1.1035  0.4363
  150SAPE   O2116496   4.595   3.973   7.358 -0.0072 -0.2338 -0.2955
  150SAPE   C2116497   4.552   4.072   7.445 -0.2807  0.0977  0.2178
  150SAPE   O2216498   4.631   4.116   7.525  0.0348  0.0934  0.2990
  150SAPE   C2216499   4.404   4.111   7.409  0.1419 -0.3949  0.0675
  150SAPE   H2R16500   4.331   4.030   7.429 -2.1753  2.1078  2.7156
  150SAPE   H2S16501   4.386   4.186   7.489  0.7644 -0.8046  0.6052
  150SAPE    C316502   4.774   3.819   7.276 -0.1905 -0.2143 -0.0008
  150SAPE    HX16503   4.705   3.732   7.278  0.5139 -0.7885  1.0130
  150SAPE    HY16504   4.873   3.783   7.313 -0.4563 -1.1074 -0.1440
  150SAPE   O3116505   4.772   3.867   7.144 -0.5841 -0.5443  0.2805
  150SAPE   C3116506   4.892   3.874   7.089 -0.0515  0.1000  0.2436
  150SAPE   O3216507   4.997   3.885   7.152  0.0664 -0.1827  0.3184
  150SAPE   C3216508   4.889   3.853   6.941 -0.3941 -0.0430  0.6104
  150SAPE   H2X16509   4.801   3.903   6.896 -1.4122 -2.9947 -0.9694
  150SAPE   H2Y16510   4.881   3.744   6.920  0.6244 -0.1543  0.7436
  150SAPE   C2316511   4.381   4.182   7.276  0.1965 -0.7081  1.3777
  150SAPE   H3R16512   4.476   4.227   7.240 -0.0188 -1.0094  0.3847
  150SAPE   H3S16513   4.301   4.257   7.288  0.2326 -0.1930 -1.0303
  150SAPE   C2416514   4.315   4.085   7.172 -0.0307  0.7504  0.6805
  150SAPE   H4R16515   4.213   4.057   7.205 -0.3175  2.0911  0.9706
  150SAPE   H4S16516   4.386   4.000   7.183 -1.9478 -1.1129 -0.7166
  150SAPE   C2516517   4.303   4.144   7.036  0.3042 -0.3039 -0.0854
  150SAPE   H5R16518   4.215   4.209   7.027  0.4688  0.1255  1.1767
  150SAPE   C2616519   4.391   4.143   6.930  0.5294  0.5032 -0.0991
  150SAPE   H6R16520   4.363   4.196   6.838 -0.1774  1.7736  0.8139
  150SAPE   C2716521   4.515   4.065   6.916 -0.6960 -0.6128  0.3948
  150SAPE   H7R16522   4.542   4.053   6.809 -0.1706  1.2721  0.2826
  150SAPE   H7S16523   4.490   3.960   6.944 -2.3984 -0.3662 -0.0661
  150SAPE   C2816524   4.632   4.120   6.989  1.7212 -0.3265 -0.2277
  150SAPE   H8R16525   4.629   4.076   7.089  0.1055  0.1430 -0.0455
  150SAPE   C2916526   4.718   4.212   6.951 -0.5263 -0.1405 -0.5415
  150SAPE   H9R16527   4.806   4.235   7.012 -1.1681  0.6293  0.1229
  150SAPE  C21016528   4.724   4.288   6.818 -0.5140  0.0102  0.3831
  150SAPE  H10R16529   4.750   4.394   6.834 -0.8880  0.3774 -1.3004
  150SAPE  H10S16530   4.624   4.292   6.771 -0.6427  0.6534  0.7020
  150SAPE  C21116531   4.807   4.214   6.715 -1.1625  1.0674  0.5730
  150SAPE  H11R16532   4.882   4.146   6.760 -0.9221  0.2577 -1.0000
  150SAPE  C21216533   4.790   4.209   6.584 -0.4391 -0.3996 -0.6270
  150SAPE  H12R16534   4.856   4.144   6.525 -1.9593 -1.9683 -0.6654
  150SAPE  C21316535   4.684   4.288   6.508  0.1393  0.5665 -0.3614
  150SAPE  H13R16536   4.736   4.332   6.420 -0.8955  2.4604 -0.0868
  150SAPE  H13S16537   4.646   4.373   6.570 -2.4379 -0.3323 -0.6267
  150SAPE  C21416538   4.552   4.213   6.490  0.7642  0.8281 -0.1996
  150SAPE  H14R16539   4.544   4.127   6.559  0.7489 -0.8030 -2.1383
  150SAPE  C21516540   4.450   4.248   6.403  0.3370 -0.1607 -0.3288
  150SAPE  H15R16541   4.361   4.185   6.387  0.1147 -0.1737  0.9200
  150SAPE  C21616542   4.455   4.364   6.304 -0.4050 -0.6940  0.0629
  150SAPE  H16R16543   4.552   4.417   6.312 -1.9779  2.4128 -0.1166
  150SAPE  H16S16544   4.386   4.440   6.345  1.1690 -0.7182  3.0140
  150SAPE  C21716545   4.419   4.319   6.167 -0.3694 -0.0274 -0.5493
  150SAPE  H17R16546   4.387   4.405   6.103 -0.6087  0.1571 -0.1846
  150SAPE  H17S16547   4.333   4.250   6.172  0.4744 -0.9829  1.3505
  150SAPE  C21816548   4.530   4.244   6.097 -0.4636 -0.1294  0.7072
  150SAPE  H18R16549   4.543   4.149   6.153 -1.8667 -0.9376 -0.2740
  150SAPE  H18S16550   4.630   4.293   6.098  0.8540 -2.6087 -0.2462
  150SAPE  C21916551   4.505   4.213   5.948 -0.1813  0.1471  0.2827
  150SAPE  H19R16552   4.600   4.170   5.912 -1.3884 -1.2387 -1.4585
  150SAPE  H19S16553   4.483   4.309   5.896 -0.5429 -0.0031  0.1511
  150SAPE  C22016554   4.401   4.109   5.918 -0.2351  0.7503 -0.5326
  150SAPE  H20R16555   4.307   4.148   5.962 -0.9413 -2.3359  0.9360
  150SAPE  H20S16556   4.416   4.010   5.966 -1.5484  0.3228 -0.9568
  150SAPE  H20T16557   4.396   4.094   5.808  2.4311  1.3137 -0.7975
  150SAPE   C3316558   5.008   3.918   6.873 -0.3696 -0.4183  0.1532
  150SAPE   H3X16559   5.112   3.885   6.895 -0.3342  1.2568  3.0676
  150SAPE   H3Y16560   5.012   4.027   6.895  1.4912  0.0215 -2.0280
  150SAPE   C3416561   4.995   3.906   6.719  0.2927  0.1765  0.4229
  150SAPE   H4X16562   4.892   3.935   6.689 -0.6894 -2.6790  0.6898
  150SAPE   H4Y16563   5.012   3.799   6.695  0.5029  0.4203 -0.5471
  150SAPE   C3516564   5.099   3.997   6.648  0.0066 -0.7048  0.7131
  150SAPE   H5X16565   5.202   3.971   6.682  0.6251 -0.5526 -0.9578
  150SAPE   H5Y16566   5.079   4.102   6.680  1.7174 -0.0576 -0.2230
  150SAPE   C3616567   5.099   3.980   6.495 -0.3498  0.5821  0.2793
  150SAPE   H6X16568   4.997   3.994   6.453  0.6256  3.9556 -1.3696
  150SAPE   H6Y16569   5.121   3.878   6.458  0.6407  0.7914  0.2783
  150SAPE   C3716570   5.197   4.072   6.424  0.1218  0.1317  0.0898
  150SAPE   H7X16571   5.299   4.074   6.468 -0.4570  2.9916  1.6185
  150SAPE   H7Y16572   5.163   4.174   6.455 -2.4466 -0.7523  0.4113
  150SAPE   C3816573   5.208   4.063   6.272  0.4294  0.4527 -0.6625
  150SAPE   H8X16574   5.113   4.093   6.221 -0.7707 -0.8574  0.7175
  150SAPE   H8Y16575   5.218   3.955   6.247 -4.3598 -0.4745  0.3711
  150SAPE   C3916576   5.326   4.136   6.198 -0.1693  0.5777 -0.6887
  150SAPE   H9X16577   5.416   4.088   6.242 -2.1874 -2.0635  0.8530
  150SAPE   H9Y16578   5.323   4.246   6.215 -2.9281  0.4977 -0.2708
  150SAPE  C31016579   5.321   4.126   6.043 -0.0956 -0.1072  0.3796
  150SAPE  H10X16580   5.389   4.203   6.003 -0.1923 -0.2710 -0.1033
  150SAPE  H10Y16581   5.218   4.147   6.009  0.2378 -0.5729 -0.9697
  150SAPE  C31116582   5.367   3.985   6.006 -0.0675  0.8031 -0.7705
  150SAPE  H11X16583   5.298   3.910   6.050 -2.5594  2.7822 -1.0103
  150SAPE  H11Y16584   5.474   3.978   6.033 -0.3871  0.7267  0.5279
  150SAPE  C31216585   5.377   3.970   5.858 -0.4293 -0.1863 -0.0117
  150SAPE  H12X16586   5.426   4.059   5.814 -0.9843 -0.0007 -0.2688
  150SAPE  H12Y16587   5.272   3.970   5.821 -0.2323 -0.0392 -0.5778
  150SAPE  C31316588   5.460   3.850   5.819  0.1763  0.4218  0.5169
  150SAPE  H13X16589   5.422   3.756   5.865 -0.3560 -0.7387 -2.1141
  150SAPE  H13Y16590   5.562   3.854   5.864 -0.0045  2.3244  0.8297
  150SAPE  C31416591   5.478   3.830   5.663  0.5109  0.5028 -0.2665
  150SAPE  H14X16592   5.378   3.833   5.613  0.4762 -1.0919 -0.3552
  150SAPE  H14Y16593   5.526   3.730   5.661  2.1894  1.2602  0.3775
  150SAPE  C31516594   5.560   3.940   5.589 -0.1408  0.3775  0.1430
  150SAPE  H15X16595   5.658   3.942   5.641 -0.6690 -0.7254  1.2315
  150SAPE  H15Y16596   5.502   4.035   5.599  0.5822  0.9728 -1.0146
  150SAPE  C31616597   5.588   3.916   5.439  0.2042 -0.4221 -0.0107
  150SAPE  H16X16598   5.630   4.012   5.401 -1.4816 -0.0452 -1.0297
  150SAPE  H16Y16599   5.486   3.902   5.396 -1.0578  1.7225  2.0788
  150SAPE  C31716600   5.695   3.813   5.421 -0.6406 -0.2589 -0.2722
  150SAPE  H17X16601   5.669   3.707   5.439 -0.8044 -0.3699 -1.1252
  150SAPE  H17Y16602   5.777   3.842   5.489 -0.4091 -1.4003 -0.0477
  150SAPE  C31816603   5.751   3.805   5.283 -0.7519  0.2208 -0.4854
  150SAPE  H18X16604   5.855   3.766   5.293 -0.2864  1.0506 -1.8280
  150SAPE  H18Y16605   5.745   3.909   5.243 -0.5238 -0.0922 -1.3738
  150SAPE  H18Z16606   5.684   3.743   5.220 -0.0207  0.4591 -1.5326
  151SAPE     N16607   6.212   6.150   7.475 -0.2167 -1.1614 -0.6140
  151SAPE   HN116608   6.310   6.185   7.474 -1.3019  2.2960  0.5551
  151SAPE   HN216609   6.171   6.185   7.563 -1.8543 -1.9881 -1.0059
  151SAPE   HN316610   6.198   6.047   7.482  2.7227 -1.5705  1.0253
  151SAPE   C1216611   6.158   6.200   7.342  0.0961 -0.0877 -0.6724
  151SAPE  H12A16612   6.138   6.308   7.361  1.3485 -0.0837  0.8708
  151SAPE  H12B16613   6.064   6.144   7.321  0.2325 -0.6989  0.2759
  151SAPE   C1116614   6.251   6.203   7.222 -0.3957 -0.4034 -0.2109
  151SAPE  H11A16615   6.200   6.259   7.140  2.3112  1.6676 -0.6348
  151SAPE  H11B16616   6.265   6.098   7.187  1.6587 -0.6338  1.1639
  151SAPE     P16617   6.462   6.341   7.154 -0.2882 -0.2788 -0.3561
  151SAPE   O1316618   6.570   6.407   7.229  0.1520  0.2062 -0.5897
  151SAPE   O1416619   6.510   6.262   7.039  0.2523 -0.3511 -0.7558
  151SAPE   O1216620   6.375   6.262   7.252  0.7502  0.1102 -0.6610
  151SAPE   O1116621   6.366   6.447   7.104 -0.3199  0.4473 -0.1500
  151SAPE    C116622   6.313   6.550   7.185 -0.4603  0.9587  0.2205
  151SAPE    HA16623   6.224   6.514   7.240 -1.2882 -1.6697 -2.5221
  151SAPE    HB16624   6.389   6.590   7.255 -1.0809  0.7726  1.0137
  151SAPE    C216625   6.259   6.667   7.098 -0.0279 -0.1393 -0.1435
  151SAPE    HS16626   6.179   6.714   7.161 -0.8074  0.2547 -1.3944
  151SAPE   O2116627   6.193   6.633   6.978  0.1804  0.4597  0.1811
  151SAPE   C2116628   6.097   6.547   6.980  0.8133  0.4976 -0.2872
  151SAPE   O2216629   6.033   6.519   7.079  0.2336  0.3616 -0.0018
  151SAPE   C2216630   6.075   6.487   6.854 -0.1225 -0.6317  0.9636
  151SAPE   H2R16631   6.146   6.402   6.841 -1.4863 -1.4347 -1.9415
  151SAPE   H2S16632   5.975   6.439   6.863 -0.1613 -0.3817  2.1412
  151SAPE    C316633   6.372   6.770   7.065  0.4332 -0.3439 -0.0820
  151SAPE    HX16634   6.460   6.703   7.058 -0.4608 -1.9654  2.6482
  151SAPE    HY16635   6.397   6.831   7.154  1.0952  0.1762 -0.6167
  151SAPE   O3116636   6.356   6.856   6.945  0.4740 -0.2446  0.9906
  151SAPE   C3116637   6.290   6.969   6.970 -0.3335 -0.5398  0.6821
  151SAPE   O3216638   6.247   7.007   7.076  0.2512 -0.3201  0.4567
  151SAPE   C3216639   6.280   7.052   6.839  0.0417  0.1068  0.1351
  151SAPE   H2X16640   6.175   7.089   6.835 -0.9026 -2.3615  0.4008
  151SAPE   H2Y16641   6.307   7.004   6.743  0.8098  0.7363  0.0226
  151SAPE   C2316642   6.076   6.585   6.732 -0.0348 -0.3184 -0.4650
  151SAPE   H3R16643   6.142   6.674   6.741  1.1578 -1.0817 -1.4109
  151SAPE   H3S16644   5.986   6.650   6.742  0.9638  1.0462  0.0145
  151SAPE   C2416645   6.105   6.522   6.593 -0.0115 -0.3008 -0.0832
  151SAPE   H4R16646   6.184   6.447   6.612  0.6931  0.1335 -1.2172
  151SAPE   H4S16647   6.145   6.600   6.525 -1.6254  1.4972  0.9210
  151SAPE   C2516648   5.977   6.460   6.540 -0.4727 -0.2678 -0.3810
  151SAPE   H5R16649   5.925   6.392   6.609 -1.0416  0.1471 -0.3959
  151SAPE   C2616650   5.923   6.470   6.417 -1.2850 -0.3556 -0.6213
  151SAPE   H6R16651   5.827   6.417   6.405 -0.6938 -1.4066 -0.8078
  151SAPE   C2716652   5.980   6.550   6.302  0.2773  0.3413  0.6108
  151SAPE   H7R16653   6.085   6.579   6.321  0.7512 -0.2078 -1.0308
  151SAPE   H7S16654   5.916   6.641   6.294 -1.8547 -1.2278 -2.9989
  151SAPE   C2816655   5.994   6.487   6.169 -0.3093  0.4504  0.8171
  151SAPE   H8R16656   6.009   6.378   6.168 -2.5539  0.0237  3.2258
  151SAPE   C2916657   5.974   6.543   6.045  0.2587 -1.2392  0.1436
  151SAPE   H9R16658   5.997   6.481   5.958  0.9856 -0.8611  0.0528
  151SAPE  C21016659   5.949   6.691   6.019  0.4487  0.0876  0.2332
  151SAPE  H10R16660   5.961   6.749   6.114  0.1573  0.0199  0.3131
  151SAPE  H10S16661   5.848   6.712   5.978  0.6098  1.0049  0.2770
  151SAPE  C21116662   6.047   6.757   5.924  0.0886  0.3826 -0.0893
  151SAPE  H11R16663   6.149   6.762   5.963 -0.5967  2.0202  1.6376
  151SAPE  C21216664   6.035   6.794   5.793  0.3139 -0.0175  0.3665
  151SAPE  H12R16665   6.124   6.828   5.740  2.5198 -4.3887  0.7668
  151SAPE  C21316666   5.915   6.760   5.707  0.3160 -0.0731  0.1603
  151SAPE  H13R16667   5.844   6.690   5.757 -0.1624 -0.8232 -1.5204
  151SAPE  H13S16668   5.952   6.710   5.615  2.7997 -0.3551  1.2214
  151SAPE  C21416669   5.832   6.879   5.678  0.4268 -0.1987 -0.2694
  151SAPE  H14R16670   5.844   6.959   5.753 -0.7449  0.9535 -1.2607
  151SAPE  C21516671   5.744   6.906   5.575 -0.0372  0.2008 -0.0965
  151SAPE  H15R16672   5.709   7.009   5.560 -0.0169  0.2975  0.5141
  151SAPE  C21616673   5.695   6.815   5.464 -0.0263 -0.5334  0.0084
  151SAPE  H16R16674   5.585   6.808   5.458 -0.2817  2.5825 -0.5009
  151SAPE  H16S16675   5.749   6.717   5.468 -0.8136 -0.9848 -0.2198
  151SAPE  C21716676   5.725   6.881   5.330 -0.1863 -0.2371  0.6468
  151SAPE  H17R16677   5.687   6.985   5.339  1.2845  0.2089  2.1584
  151SAPE  H17S16678   5.665   6.829   5.253 -0.7880  1.1232  0.1716
  151SAPE  C21816679   5.872   6.871   5.286  0.3615 -0.5026  0.1153
  151SAPE  H18R16680   5.897   6.763   5.292  0.2923 -0.5147  0.1931
  151SAPE  H18S16681   5.936   6.935   5.349 -0.9146  0.1968  0.7524
  151SAPE  C21916682   5.879   6.922   5.142 -0.3582  0.7379 -0.0593
  151SAPE  H19R16683   5.831   7.022   5.142  0.4978  1.2033 -2.0517
  151SAPE  H19S16684   5.825   6.867   5.062  1.2697  0.6222 -1.1362
  151SAPE  C22016685   6.023   6.935   5.095  0.0655  0.6678 -0.4076
  151SAPE  H20R16686   6.032   6.980   4.994 -0.6547  0.9054 -0.3726
  151SAPE  H20S16687   6.067   6.834   5.084  0.7328  0.8819  0.2512
  151SAPE  H20T16688   6.064   6.996   5.178 -5.7836  3.0541  1.2796
  151SAPE   C3316689   6.363   7.178   6.850 -0.9619  0.3964 -0.2017
  151SAPE   H3X16690   6.470   7.161   6.826 -1.0226  2.4489 -2.3428
  151SAPE   H3Y16691   6.357   7.234   6.946  0.6363 -1.7807  1.2644
  151SAPE   C3416692   6.326   7.284   6.748  0.3629  0.7582 -0.3162
  151SAPE   H4X16693   6.359   7.386   6.774  3.4981 -0.6444  1.8186
  151SAPE   H4Y16694   6.215   7.291   6.753 -0.0248 -3.3469  1.4497
  151SAPE   C3516695   6.355   7.254   6.598  0.3364  0.2798  0.0081
  151SAPE   H5X16696   6.306   7.157   6.575 -1.5378  1.3491 -0.7527
  151SAPE   H5Y16697   6.464   7.249   6.576  0.5489 -2.6223  1.3774
  151SAPE   C3616698   6.296   7.362   6.514  0.3085  0.2465 -0.4336
  151SAPE   H6X16699   6.313   7.466   6.551 -0.8015  0.5307 -0.6752
  151SAPE   H6Y16700   6.187   7.339   6.517  0.7451 -2.4530 -1.9525
  151SAPE   C3716701   6.329   7.347   6.361 -0.0075 -0.2700  0.7188
  151SAPE   H7X16702   6.264   7.406   6.293  0.9593  1.4003  1.1857
  151SAPE   H7Y16703   6.325   7.238   6.339 -0.7550 -0.9200  3.6249
  151SAPE   C3816704   6.477   7.383   6.324 -0.0171 -0.0264 -0.0645
  151SAPE   H8X16705   6.547   7.332   6.394  0.9614  3.4718  1.7193
  151SAPE   H8Y16706   6.494   7.491   6.342  1.1045 -0.1908 -0.0581
  151SAPE   C3916707   6.522   7.361   6.182 -0.1706  0.4247  0.3389
  151SAPE   H9X16708   6.522   7.252   6.157  0.0981  0.4551  0.2053
  151SAPE   H9Y16709   6.630   7.385   6.170 -0.5773  0.8690 -4.7540
  151SAPE  C31016710   6.432   7.436   6.078  0.4325 -0.4234 -0.7489
  151SAPE  H10X16711   6.438   7.538   6.121 -2.0350 -0.0266 -1.1893
  151SAPE  H10Y16712   6.327   7.402   6.080  1.1161 -2.6652  0.5089
  151SAPE  C31116713   6.505   7.423   5.946 -0.7541 -1.0806 -0.0207
  151SAPE  H11X16714   6.508   7.316   5.914 -1.0588 -1.2077  0.3730
  151SAPE  H11Y16715   6.606   7.467   5.957 -1.1886  0.0172 -0.2863
  151SAPE  C31216716   6.426   7.510   5.844  0.2127 -0.1335  0.5827
  151SAPE  H12X16717   6.379   7.600   5.891  0.3696 -0.1870  0.8428
  151SAPE  H12Y16718   6.343   7.448   5.805 -0.1374 -0.1063  1.2572
  151SAPE  C31316719   6.517   7.541   5.724  0.4550 -0.3159  0.2915
  151SAPE  H13X16720   6.546   7.443   5.681  1.4569 -0.2911  0.8915
  151SAPE  H13Y16721   6.613   7.592   5.742 -0.2137  1.5417 -1.0864
  151SAPE  C31416722   6.444   7.629   5.623 -0.4412 -0.1831  0.8027
  151SAPE  H14X16723   6.478   7.734   5.639 -0.2778  0.0168 -0.7479
  151SAPE  H14Y16724   6.333   7.620   5.626 -0.3914 -2.2882 -1.0823
  151SAPE  C31516725   6.495   7.589   5.484 -0.4762 -0.5527  0.4525
  151SAPE  H15X16726   6.484   7.478   5.477  4.5719 -1.2366 -0.8835
  151SAPE  H15Y16727   6.603   7.613   5.471 -0.8028  0.3304 -0.8129
  151SAPE  C31616728   6.420   7.652   5.365 -0.2620  0.5417  0.1242
  151SAPE  H16X16729   6.454   7.758   5.366  1.7512 -0.0672  0.7126
  151SAPE  H16Y16730   6.313   7.654   5.394  0.0735 -1.0875  1.6769
  151SAPE  C31716731   6.456   7.591   5.226 -0.4257 -0.3549  0.1326
  151SAPE  H17X16732   6.428   7.484   5.236  1.6293 -0.8261  1.5497
  151SAPE  H17Y16733   6.565   7.602   5.207 -0.8043  0.7953 -1.6033
  151SAPE  C31816734   6.392   7.673   5.107 -0.5281  0.4747  0.1391
  151SAPE  H18X16735   6.285   7.697   5.127 -0.2076  1.6862  0.5124
  151SAPE  H18Y16736   6.385   7.609   5.017  1.0588 -2.2895  1.8670
  151SAPE  H18Z16737   6.450   7.767   5.099  1.2766 -0.4992  1.2330
  152SAPE     N16738   2.819   2.979   7.291  0.2818  0.2403  0.2316
  152SAPE   HN116739   2.823   2.944   7.193 -0.0015 -2.1537  1.0105
  152SAPE   HN216740   2.790   2.906   7.359  0.9567 -0.3563 -0.1055
  152SAPE   HN316741   2.744   3.051   7.289 -2.0267 -2.0130 -0.8115
  152SAPE   C1216742   2.945   3.032   7.354 -0.9011 -0.0365  0.9214
  152SAPE  H12A16743   3.021   2.951   7.347 -1.8345 -1.1988  3.1386
  152SAPE  H12B16744   2.919   3.063   7.457 -0.1241  0.6167  0.9284
  152SAPE   C1116745   2.998   3.157   7.274 -0.7505  0.1107 -0.6093
  152SAPE  H11A16746   2.915   3.190   7.208 -1.1601 -0.0873 -0.1936
  152SAPE  H11B16747   3.078   3.113   7.211 -0.9435 -2.3083  0.7307
  152SAPE     P16748   3.077   3.410   7.313 -0.4564  0.1862 -0.0087
  152SAPE   O1316749   2.964   3.471   7.236  0.2777  0.7481  0.3528
  152SAPE   O1416750   3.113   3.492   7.430  0.0016  0.1525  0.0183
  152SAPE   O1216751   3.039   3.260   7.357 -0.2681  0.5025  0.0309
  152SAPE   O1116752   3.200   3.384   7.219  0.7104  0.0813  0.1952
  152SAPE    C116753   3.328   3.353   7.265  0.1690  0.4212 -0.4804
  152SAPE    HA16754   3.366   3.416   7.348  0.0591 -0.6082  0.3589
  152SAPE    HB16755   3.334   3.249   7.303 -0.7309 -0.4150 -2.4716
  152SAPE    C216756   3.429   3.383   7.154  0.6415  0.8766  0.3788
  152SAPE    HS16757   3.425   3.492   7.133  2.4080  0.5952 -1.7145
  152SAPE   O2116758   3.397   3.313   7.022 -0.4301 -0.1398 -0.1474
  152SAPE   C2116759   3.333   3.383   6.933  0.8862 -0.6413 -0.4968
  152SAPE   O2216760   3.298   3.499   6.949  0.1038  0.2156  0.2228
  152SAPE   C2216761   3.295   3.297   6.823 -0.3078  0.0756 -0.1953
  152SAPE   H2R16762   3.242   3.205   6.857 -0.7597  0.6068  0.5479
  152SAPE   H2S16763   3.224   3.351   6.756  1.3777 -1.6302 -3.6338
  152SAPE    C316764   3.575   3.342   7.199 -0.0833  0.3381 -0.0962
  152SAPE    HX16765   3.570   3.237   7.235 -0.7737  0.1023 -0.8527
  152SAPE    HY16766   3.604   3.405   7.285 -1.9688  0.5619  0.4101
  152SAPE   O3116767   3.671   3.340   7.092  0.5171 -0.0472  0.4707
  152SAPE   C3116768   3.719   3.456   7.057 -0.7576 -0.1371 -0.1233
  152SAPE   O3216769   3.671   3.564   7.089 -0.1360  0.1152  0.0740
  152SAPE   C3216770   3.849   3.433   6.980  0.1754  0.3330  0.0110
  152SAPE   H2X16771   3.887   3.331   7.003  1.1335  1.0411  1.7723
  152SAPE   H2Y16772   3.924   3.510   7.009  2.1049 -1.6140  0.5424
  152SAPE   C2316773   3.414   3.253   6.738  0.7804 -0.6588  0.2696
  152SAPE   H3R16774   3.375   3.173   6.671 -1.7641  1.7107 -1.2648
  152SAPE   H3S16775   3.486   3.206   6.808 -0.6382 -1.2999  1.3402
  152SAPE   C2416776   3.465   3.365   6.647  0.3660 -0.1676  0.7653
  152SAPE   H4R16777   3.570   3.351   6.613  0.3929  1.3369  0.1917
  152SAPE   H4S16778   3.479   3.462   6.698 -0.1057 -0.0926  0.7573
  152SAPE   C2516779   3.378   3.396   6.533  0.4439 -0.7814 -0.1260
  152SAPE   H5R16780   3.274   3.413   6.563  0.2926 -0.5221 -0.7710
  152SAPE   C2616781   3.417   3.377   6.403 -0.4121  0.5403 -0.4701
  152SAPE   H6R16782   3.343   3.394   6.324  1.8438  1.3788 -2.5281
  152SAPE   C2716783   3.551   3.339   6.346 -0.1003 -0.1223  0.5543
  152SAPE   H7R16784   3.607   3.267   6.409 -1.1403 -1.0028  0.4946
  152SAPE   H7S16785   3.618   3.427   6.351 -0.8967  0.5005  0.4066
  152SAPE   C2816786   3.538   3.290   6.206 -0.1763  0.4687  0.6990
  152SAPE   H8R16787   3.624   3.322   6.146  0.7323 -0.2573  1.5769
  152SAPE   C2916788   3.453   3.210   6.139  0.1855  0.0696  0.2010
  152SAPE   H9R16789   3.471   3.198   6.031 -1.1147  1.1794 -0.1859
  152SAPE  C21016790   3.327   3.145   6.192  0.1315 -0.1814 -0.1600
  152SAPE  H10R16791   3.317   3.132   6.302  0.4025 -0.8341 -0.2092
  152SAPE  H10S16792   3.333   3.036   6.172  0.1048 -0.3691  0.7937
  152SAPE  C21116793   3.203   3.211   6.137  0.0184  1.0725 -0.0636
  152SAPE  H11R16794   3.222   3.250   6.036  3.9513  1.8969  0.8034
  152SAPE  C21216795   3.085   3.225   6.199  0.9580  0.2237 -0.3043
  152SAPE  H12R16796   2.996   3.262   6.146 -1.8964 -3.7636  1.1806
  152SAPE  C21316797   3.046   3.181   6.336 -0.5968 -0.0107  0.4270
  152SAPE  H13R16798   3.003   3.272   6.384 -1.7738 -1.1326  1.5813
  152SAPE  H13S16799   3.138   3.149   6.391 -1.2251 -2.2387  0.2505
  152SAPE  C21416800   2.943   3.069   6.344 -0.1791  0.3324 -0.1464
  152SAPE  H14R16801   2.841   3.108   6.352 -0.0758  1.0935 -2.0090
  152SAPE  C21516802   2.971   2.936   6.335  0.3194  0.3778 -0.7668
  152SAPE  H15R16803   2.884   2.869   6.340  0.0867  0.7724  0.8682
  152SAPE  C21616804   3.107   2.875   6.318  0.5701 -0.2388 -0.3501
  152SAPE  H16R16805   3.133   2.823   6.412 -2.6057  1.1329  1.4551
  152SAPE  H16S16806   3.189   2.949   6.304  0.6879 -0.3563 -0.2854
  152SAPE  C21716807   3.102   2.775   6.202 -0.2922 -0.1459  0.8965
  152SAPE  H17R16808   3.026   2.694   6.208  0.2283 -0.9412 -1.6589
  152SAPE  H17S16809   3.195   2.714   6.207 -0.0690  0.3116  3.9173
  152SAPE  C21816810   3.105   2.845   6.064  1.1549  0.3776 -0.1024
  152SAPE  H18R16811   3.155   2.944   6.068  1.7066  0.0709  0.8369
  152SAPE  H18S16812   2.997   2.853   6.039  0.5544 -1.1117  1.8150
  152SAPE  C21916813   3.161   2.769   5.946 -0.1736  0.3549  0.8218
  152SAPE  H19R16814   3.263   2.735   5.972  0.4946 -2.4692 -4.1058
  152SAPE  H19S16815   3.161   2.840   5.860  2.1715 -0.0662  0.4159
  152SAPE  C22016816   3.086   2.646   5.910 -0.1737  0.3397 -0.2480
  152SAPE  H20R16817   3.143   2.583   5.838  1.3729 -2.7035  3.3085
  152SAPE  H20S16818   2.982   2.668   5.877  0.6373  3.4458 -1.0686
  152SAPE  H20T16819   3.090   2.588   6.005  1.0993  1.3360  0.3398
  152SAPE   C3316820   3.816   3.434   6.825  0.4421 -0.1387  0.8346
  152SAPE   H3X16821   3.712   3.398   6.806  0.8026  0.0311 -1.8756
  152SAPE   H3Y16822   3.882   3.359   6.776 -0.9918 -1.0058  0.1434
  152SAPE   C3416823   3.837   3.573   6.764 -0.6213  0.2459 -0.6349
  152SAPE   H4X16824   3.939   3.600   6.798 -1.6408  0.8179  2.2540
  152SAPE   H4Y16825   3.778   3.652   6.817  0.5870  0.2757  0.7034
  152SAPE   C3516826   3.819   3.577   6.616 -0.0593 -0.2866  0.5710
  152SAPE   H5X16827   3.848   3.674   6.571  1.0693 -1.6528 -1.8390
  152SAPE   H5Y16828   3.714   3.556   6.587 -0.0696  1.6614 -1.0088
  152SAPE   C3616829   3.892   3.459   6.545  0.8307 -0.4479 -0.0980
  152SAPE   H6X16830   3.838   3.367   6.573  0.8508 -0.0117  1.4737
  152SAPE   H6Y16831   3.995   3.447   6.584  1.1451 -0.4687 -0.9028
  152SAPE   C3716832   3.899   3.473   6.392 -0.1619  0.8188  0.1907
  152SAPE   H7X16833   3.970   3.552   6.361  0.9313  0.3685  1.4624
  152SAPE   H7Y16834   3.798   3.506   6.360 -1.1422 -1.3381  0.8821
  152SAPE   C3816835   3.935   3.342   6.319  0.3349 -0.2506  0.4729
  152SAPE   H8X16836   3.861   3.268   6.358  0.3937  0.8558  2.8604
  152SAPE   H8Y16837   4.038   3.306   6.339  0.5240 -1.9200 -2.8371
  152SAPE   C3916838   3.929   3.358   6.170 -0.2389 -0.3462  0.2610
  152SAPE   H9X16839   4.009   3.426   6.134 -0.0175 -0.7121  0.0661
  152SAPE   H9Y16840   3.833   3.411   6.151  0.6253  0.8017 -1.1905
  152SAPE  C31016841   3.942   3.230   6.103  0.2199  1.0481 -0.5000
  152SAPE  H10X16842   3.855   3.168   6.134 -2.1019  3.3722 -1.9676
  152SAPE  H10Y16843   4.035   3.176   6.130 -1.1342 -1.6830 -0.9492
  152SAPE  C31116844   3.941   3.233   5.954 -0.0735 -0.2887 -0.0190
  152SAPE  H11X16845   3.947   3.126   5.925 -1.0634 -0.0587 -1.1590
  152SAPE  H11Y16846   4.010   3.291   5.888 -0.4846  0.6263  0.3397
  152SAPE  C31216847   3.797   3.275   5.900 -0.4947  1.3309  0.0704
  152SAPE  H12X16848   3.776   3.375   5.942 -0.1226  1.0275  0.9978
  152SAPE  H12Y16849   3.722   3.207   5.946 -0.9465  1.7514 -0.0273
  152SAPE  C31316850   3.794   3.276   5.745 -0.3494 -0.0630 -0.5621
  152SAPE  H13X16851   3.885   3.336   5.721 -1.3101  1.6825 -0.0512
  152SAPE  H13Y16852   3.706   3.328   5.701  1.2168  1.9217 -1.4933
  152SAPE  C31416853   3.804   3.143   5.674  0.1475  0.2610 -0.9367
  152SAPE  H14X16854   3.722   3.084   5.721  2.8637 -1.7905  1.6450
  152SAPE  H14Y16855   3.898   3.087   5.693 -0.3539 -0.1351  0.5420
  152SAPE  C31516856   3.765   3.159   5.525 -0.2284  0.6281 -0.3337
  152SAPE  H15X16857   3.669   3.213   5.512 -0.2588  1.6114  3.0880
  152SAPE  H15Y16858   3.757   3.055   5.487  1.5801  0.0983  0.5992
  152SAPE  C31616859   3.876   3.226   5.441  0.4943  0.4288 -0.3781
  152SAPE  H16X16860   3.956   3.149   5.449  0.1654  0.0570 -0.6045
  152SAPE  H16Y16861   3.904   3.315   5.501  1.6821 -0.4772  0.4555
  152SAPE  C31716862   3.841   3.266   5.296 -0.5439 -1.1913 -0.5421
  152SAPE  H17X16863   3.791   3.179   5.248 -2.9060  0.7740 -1.8533
  152SAPE  H17Y16864   3.933   3.295   5.241 -0.6585 -1.0819 -0.6781
  152SAPE  C31816865   3.744   3.386   5.293 -0.3995  0.4746  0.4698
  152SAPE  H18X16866   3.777   3.479   5.344 -0.7471  0.3050  1.0124
  152SAPE  H18Y16867   3.647   3.361   5.342 -1.4889 -1.7203 -2.4581
  152SAPE  H18Z16868   3.727   3.408   5.185 -0.2941 -1.0473  0.1195
  153SAPE     N16869   2.707   6.386   7.923  0.7842 -0.0786  0.7760
  153SAPE   HN116870   2.609   6.390   7.888 -0.1804  1.0341  3.3268
  153SAPE   HN216871   2.735   6.287   7.932 -0.1094 -0.2457  1.9334
  153SAPE   HN316872   2.704   6.434   8.016 -1.6406 -1.2416  1.3956
  153SAPE   C1216873   2.784   6.466   7.820 -0.1869  0.1286 -0.6323
  153SAPE  H12A16874   2.858   6.518   7.885 -0.1694 -0.3081 -0.3034
  153SAPE  H12B16875   2.704   6.537   7.790 -0.6822 -0.8460 -1.6575
  153SAPE   C1116876   2.844   6.386   7.698  0.2198  0.3589  0.2832
  153SAPE  H11A16877   2.897   6.456   7.630  0.1486  1.4267  1.2787
  153SAPE  H11B16878   2.753   6.355   7.642  0.3412  0.0730  0.2446
  153SAPE     P16879   3.066   6.279   7.772  0.1025 -0.4274 -0.0027
  153SAPE   O1316880   3.084   6.401   7.854  0.2284 -0.6077 -0.1394
  153SAPE   O1416881   3.106   6.147   7.828 -0.0221 -0.5331  0.5295
  153SAPE   O1216882   2.911   6.269   7.733  0.2688  0.6040  0.1029
  153SAPE   O1116883   3.120   6.302   7.623  0.0983  0.4202  0.1986
  153SAPE    C116884   3.128   6.201   7.526 -0.5042 -0.0346 -0.7032
  153SAPE    HA16885   3.171   6.111   7.575  1.8157  0.3845 -1.8122
  153SAPE    HB16886   3.023   6.173   7.502 -0.8507 -0.2974  0.9585
  153SAPE    C216887   3.209   6.232   7.394  0.2597 -0.2680  0.4550
  153SAPE    HS16888   3.316   6.219   7.421 -0.0727  0.4115  2.1987
  153SAPE   O2116889   3.184   6.365   7.342  0.7394  0.2507  0.2336
  153SAPE   C2116890   3.263   6.464   7.390  0.0653 -0.0175 -0.4396
  153SAPE   O2216891   3.356   6.448   7.469  0.2186 -0.1853 -0.0462
  153SAPE   C2216892   3.208   6.598   7.340  0.2929  0.1651  0.3807
  153SAPE   H2R16893   3.131   6.578   7.263  0.0432 -1.4597  1.0204
  153SAPE   H2S16894   3.153   6.643   7.426 -2.3154  0.4686 -1.3143
  153SAPE    C316895   3.186   6.126   7.286  0.8089  0.1057 -0.1040
  153SAPE    HX16896   3.076   6.118   7.277  0.9749 -0.6982 -1.8448
  153SAPE    HY16897   3.225   6.027   7.319 -0.3622 -0.5711 -0.6998
  153SAPE   O3116898   3.230   6.162   7.155  0.5149 -0.1069  0.2245
  153SAPE   C3116899   3.360   6.157   7.145 -0.4795 -0.0342 -0.1772
  153SAPE   O3216900   3.439   6.104   7.215  0.0832 -0.0555 -0.2368
  153SAPE   C3216901   3.388   6.234   7.015  1.1904  0.3731  0.4100
  153SAPE   H2X16902   3.479   6.297   7.021  0.2714  1.7728  0.2140
  153SAPE   H2Y16903   3.309   6.309   6.992  0.8234  0.2878  1.3474
  153SAPE   C2316904   3.313   6.698   7.283 -0.0382 -0.6931 -0.2248
  153SAPE   H3R16905   3.392   6.720   7.359 -0.2700  0.7214 -0.3760
  153SAPE   H3S16906   3.277   6.801   7.262  4.3662  1.3541  0.8746
  153SAPE   C2416907   3.391   6.642   7.162  0.5097 -0.3094  0.0881
  153SAPE   H4R16908   3.464   6.576   7.213  1.5485  0.9498  0.2906
  153SAPE   H4S16909   3.447   6.723   7.110 -2.7487  1.2613 -1.2910
  153SAPE   C2516910   3.315   6.569   7.059 -0.5034  0.1223  0.2370
  153SAPE   H5R16911   3.260   6.483   7.102 -1.0795  0.8986  1.0816
  153SAPE   C2616912   3.318   6.591   6.931 -0.1443 -0.2478 -0.2747
  153SAPE   H6R16913   3.253   6.533   6.864 -0.6021  0.5240 -0.5142
  153SAPE   C2716914   3.396   6.690   6.858  0.1991 -0.3703  0.3149
  153SAPE   H7R16915   3.477   6.734   6.920  0.0362  1.5536 -0.7764
  153SAPE   H7S16916   3.331   6.774   6.825  1.5692  0.9725  0.9302
  153SAPE   C2816917   3.454   6.633   6.729  0.3775  0.7371  0.4109
  153SAPE   H8R16918   3.563   6.617   6.730 -0.0244 -4.1505  4.3802
  153SAPE   C2916919   3.386   6.616   6.612 -0.2874  0.2557  0.6106
  153SAPE   H9R16920   3.446   6.585   6.526 -1.1653 -2.3319  0.8326
  153SAPE  C21016921   3.237   6.637   6.585 -0.5663  0.4969  0.3412
  153SAPE  H10R16922   3.215   6.735   6.633  0.4107  0.8764  0.0482
  153SAPE  H10S16923   3.195   6.553   6.643  0.6731  0.3409  1.0358
  153SAPE  C21116924   3.171   6.639   6.449 -0.0656  0.2418 -0.3423
  153SAPE  H11R16925   3.070   6.596   6.459  0.7139 -1.3308  1.3857
  153SAPE  C21216926   3.219   6.671   6.331  1.0459  1.0595  0.6061
  153SAPE  H12R16927   3.159   6.676   6.239  1.1161  0.2531  0.5059
  153SAPE  C21316928   3.349   6.718   6.288 -0.8759 -0.6479  0.1376
  153SAPE  H13R16929   3.420   6.728   6.373 -0.0203 -1.7001 -0.4122
  153SAPE  H13S16930   3.339   6.820   6.245  2.2239  0.1215  0.9690
  153SAPE  C21416931   3.429   6.629   6.193 -0.4149  0.1055 -0.2131
  153SAPE  H14R16932   3.431   6.527   6.235  1.4469  0.6126  1.0618
  153SAPE  C21516933   3.482   6.664   6.074  0.5068  0.2098  0.0453
  153SAPE  H15R16934   3.546   6.596   6.016  0.6038  0.3118  0.0325
  153SAPE  C21616935   3.483   6.803   6.008  0.4446  0.0195  0.0300
  153SAPE  H16R16936   3.573   6.863   6.033  1.4498 -0.6081 -1.8986
  153SAPE  H16S16937   3.394   6.859   6.045  0.0646 -0.5253 -0.0497
  153SAPE  C21716938   3.470   6.809   5.854 -0.1459 -0.0314 -0.6801
  153SAPE  H17R16939   3.373   6.775   5.812  1.0812 -2.4705 -1.7429
  153SAPE  H17S16940   3.545   6.738   5.815 -1.2014 -0.8289 -1.3104
  153SAPE  C21816941   3.515   6.945   5.800 -0.3876 -0.4996  0.6618
  153SAPE  H18R16942   3.623   6.941   5.829 -0.2526 -0.9232  0.1181
  153SAPE  H18S16943   3.452   7.031   5.832  1.7812  1.2013  0.5950
  153SAPE  C21916944   3.516   6.961   5.644  0.1849  0.1601 -0.6626
  153SAPE  H19R16945   3.413   6.969   5.604  0.2794  0.9279 -0.7649
  153SAPE  H19S16946   3.557   6.867   5.601  1.0210  0.4709 -0.5789
  153SAPE  C22016947   3.604   7.080   5.592 -0.2072 -0.2981 -0.1399
  153SAPE  H20R16948   3.704   7.066   5.637 -0.1544  0.0248 -0.1546
  153SAPE  H20S16949   3.569   7.179   5.629  2.4629  0.8118 -0.3257
  153SAPE  H20T16950   3.610   7.069   5.481  0.2858 -0.0864 -0.1384
  153SAPE   C3316951   3.411   6.136   6.894  0.4876 -0.3442 -0.0735
  153SAPE   H3X16952   3.318   6.076   6.884 -0.8545  1.6916 -0.4765
  153SAPE   H3Y16953   3.494   6.072   6.931  0.1808  0.4480  2.1348
  153SAPE   C3416954   3.445   6.214   6.766 -0.4840 -0.5261  0.5753
  153SAPE   H4X16955   3.527   6.285   6.790 -1.2128  0.2082  0.9066
  153SAPE   H4Y16956   3.359   6.274   6.730  0.6842  0.4256 -0.7511
  153SAPE   C3516957   3.484   6.130   6.650 -0.5280  0.0513 -0.4125
  153SAPE   H5X16958   3.402   6.055   6.652 -2.9054  2.4787  1.7612
  153SAPE   H5Y16959   3.581   6.082   6.673 -1.1962  0.3773  3.9146
  153SAPE   C3616960   3.490   6.200   6.511 -0.5263 -0.4745  0.6653
  153SAPE   H6X16961   3.569   6.277   6.514  0.4664 -1.4680  0.7382
  153SAPE   H6Y16962   3.396   6.259   6.512 -0.7743 -0.8492  2.1964
  153SAPE   C3716963   3.527   6.114   6.395  0.4638 -0.1430  0.4407
  153SAPE   H7X16964   3.434   6.064   6.360 -0.3512  2.0799 -0.8283
  153SAPE   H7Y16965   3.585   6.029   6.436 -0.1904 -1.1527 -0.6680
  153SAPE   C3816966   3.594   6.202   6.282  0.4178  0.4248 -0.6089
  153SAPE   H8X16967   3.691   6.239   6.323  1.2350 -2.8189  0.7846
  153SAPE   H8Y16968   3.520   6.282   6.263 -2.4900 -1.9949 -0.3373
  153SAPE   C3916969   3.619   6.120   6.153 -0.4425  0.1633  0.0038
  153SAPE   H9X16970   3.525   6.106   6.096 -2.4151 -2.1942  3.4740
  153SAPE   H9Y16971   3.664   6.023   6.183 -1.6941 -0.4522 -0.0461
  153SAPE  C31016972   3.723   6.196   6.073 -0.6035  0.2942  0.1149
  153SAPE  H10X16973   3.738   6.125   5.989  0.2801  1.0772 -0.4131
  153SAPE  H10Y16974   3.811   6.215   6.137  0.4695 -2.5400 -0.3894
  153SAPE  C31116975   3.686   6.335   6.012 -0.0050 -0.3306  0.2514
  153SAPE  H11X16976   3.678   6.406   6.096  0.2084  0.6695 -0.5594
  153SAPE  H11Y16977   3.591   6.326   5.955  0.0936 -0.4056  0.0955
  153SAPE  C31216978   3.793   6.394   5.917 -1.0758 -0.1632 -0.0602
  153SAPE  H12X16979   3.811   6.326   5.831  1.0700 -1.6070  1.4402
  153SAPE  H12Y16980   3.882   6.382   5.982  0.6642  0.6842 -2.1502
  153SAPE  C31316981   3.772   6.544   5.877 -0.2701 -0.3123  0.1185
  153SAPE  H13X16982   3.765   6.604   5.971  0.2806  1.2084 -0.7635
  153SAPE  H13Y16983   3.669   6.554   5.838 -1.3404 -1.2197  2.5028
  153SAPE  C31416984   3.881   6.606   5.780  0.6380 -0.1155 -0.0638
  153SAPE  H14X16985   3.851   6.708   5.751  1.4706 -0.4756 -2.3659
  153SAPE  H14Y16986   3.889   6.552   5.683  0.0997 -1.8896  0.8323
  153SAPE  C31516987   4.023   6.617   5.836  0.0562  0.7176  0.2081
  153SAPE  H15X16988   4.071   6.519   5.814 -2.3082 -0.5590  0.4699
  153SAPE  H15Y16989   4.009   6.617   5.946 -0.1844 -0.6665  0.2002
  153SAPE  C31616990   4.111   6.728   5.781 -0.1053 -0.0706 -0.1253
  153SAPE  H16X16991   4.043   6.813   5.761 -0.3589  0.2555  1.9032
  153SAPE  H16Y16992   4.159   6.705   5.683 -0.2331 -2.0428  0.2244
  153SAPE  C31716993   4.222   6.763   5.889 -0.6804 -0.0327  0.7526
  153SAPE  H17X16994   4.176   6.775   5.990 -1.0125  0.8340  0.5078
  153SAPE  H17Y16995   4.261   6.855   5.841  0.2795 -1.4400 -1.3002
  153SAPE  C31816996   4.349   6.673   5.893 -0.9143  0.2237  0.3386
  153SAPE  H18X16997   4.318   6.566   5.897  0.6822 -0.4139 -2.0205
  153SAPE  H18Y16998   4.415   6.688   5.981  1.6820 -1.6152 -1.1402
  153SAPE  H18Z16999   4.402   6.672   5.795 -0.1011  2.8439  0.6833
  154SAPE     N17000   2.092   1.732   7.544 -0.2032 -0.8747  0.7896
  154SAPE   HN117001   2.182   1.689   7.572 -0.1101  0.4023  2.5660
  154SAPE   HN217002   2.102   1.832   7.568 -0.7610 -0.2538 -1.3134
  154SAPE   HN317003   2.005   1.684   7.576 -1.1654  0.4852  0.3027
  154SAPE   C1217004   2.100   1.722   7.395  0.3077  0.3807 -0.0337
  154SAPE  H12A17005   1.997   1.713   7.354 -0.1709  3.0150  0.4108
  154SAPE  H12B17006   2.168   1.637   7.375 -1.4957 -2.2011  3.5535
  154SAPE   C1117007   2.149   1.853   7.335 -0.9749  0.1619 -0.0250
  154SAPE  H11A17008   2.091   1.937   7.377 -2.2543 -0.6047 -0.2170
  154SAPE  H11B17009   2.127   1.841   7.226 -1.5159 -2.3192  0.2835
  154SAPE     P17010   2.355   1.993   7.422 -0.2251  0.1808 -0.1828
  154SAPE   O1317011   2.260   2.052   7.516  0.2943  0.3904  0.3598
  154SAPE   O1417012   2.483   1.954   7.482 -0.1596 -0.1325 -0.1496
  154SAPE   O1217013   2.290   1.863   7.353  0.1660 -0.2462 -0.0081
  154SAPE   O1117014   2.385   2.081   7.299  0.2645 -0.4842 -0.0250
  154SAPE    C117015   2.405   2.219   7.310 -0.1796  0.2403  0.6561
  154SAPE    HA17016   2.312   2.261   7.353 -0.9267 -0.1724 -0.4746
  154SAPE    HB17017   2.483   2.243   7.384 -1.3627 -1.2993  2.5005
  154SAPE    C217018   2.431   2.287   7.174  0.3494  0.5505  0.4787
  154SAPE    HS17019   2.456   2.395   7.188  1.5453  0.3611 -0.0468
  154SAPE   O2117020   2.312   2.266   7.094 -0.6209  0.2625 -0.4299
  154SAPE   C2117021   2.203   2.334   7.112  0.4744 -0.5150 -0.0604
  154SAPE   O2217022   2.191   2.442   7.173  0.0877  0.3846  0.7460
  154SAPE   C2217023   2.086   2.258   7.063 -0.6566  1.0162  0.6017
  154SAPE   H2R17024   2.029   2.218   7.149 -1.2581 -0.5685 -0.5003
  154SAPE   H2S17025   2.027   2.329   7.001  0.4666 -0.7866 -2.8443
  154SAPE    C317026   2.550   2.214   7.097 -0.5773 -1.1084  0.0761
  154SAPE    HX17027   2.522   2.107   7.085 -0.5800 -1.3802  2.1427
  154SAPE    HY17028   2.636   2.210   7.167  0.0785 -0.8663 -0.7018
  154SAPE   O3117029   2.588   2.264   6.963 -0.1226  0.4290  0.0008
  154SAPE   C3117030   2.716   2.284   6.942 -0.0220 -0.0086  0.2354
  154SAPE   O3217031   2.808   2.266   7.022 -0.4370  0.1865  0.1075
  154SAPE   C3217032   2.740   2.341   6.801 -0.3677  0.5065  0.6759
  154SAPE   H2X17033   2.793   2.438   6.813  0.8420  0.0881 -0.9143
  154SAPE   H2Y17034   2.643   2.369   6.755  0.0548 -0.2053 -0.7183
  154SAPE   C2317035   2.125   2.139   6.966 -1.0573  0.0561  1.5082
  154SAPE   H3R17036   2.033   2.083   6.938  1.1324 -1.8873 -2.6960
  154SAPE   H3S17037   2.194   2.072   7.022 -0.8137 -1.1402 -0.1410
  154SAPE   C2417038   2.174   2.197   6.822 -0.1198  0.8913  0.2006
  154SAPE   H4R17039   2.202   2.108   6.761 -1.4702  0.8321 -0.3824
  154SAPE   H4S17040   2.255   2.262   6.859  1.3840 -2.1164  2.7021
  154SAPE   C2517041   2.066   2.270   6.753 -0.1631  0.6232 -0.6178
  154SAPE   H5R17042   2.070   2.379   6.770  2.1317  0.4495  0.2924
  154SAPE   C2617043   1.984   2.218   6.662  0.5494 -0.1484  0.2913
  154SAPE   H6R17044   1.905   2.279   6.617  1.1100 -0.6495 -1.4442
  154SAPE   C2717045   1.974   2.071   6.629  0.8818  0.1966 -0.5465
  154SAPE   H7R17046   2.069   2.017   6.650 -0.0041 -1.0095  0.5246
  154SAPE   H7S17047   1.964   2.080   6.519  0.4223 -0.5364 -0.5759
  154SAPE   C2817048   1.857   2.001   6.693 -0.1795  0.7912 -0.3786
  154SAPE   H8R17049   1.837   2.042   6.793  0.5716 -2.0516  1.0442
  154SAPE   C2917050   1.791   1.892   6.640  0.4834  0.0842 -0.4646
  154SAPE   H9R17051   1.694   1.861   6.680  0.0686 -2.6708 -3.1917
  154SAPE  C21017052   1.818   1.818   6.518  0.2657  0.3446  0.1860
  154SAPE  H10R17053   1.903   1.856   6.457  1.0297  2.5026  2.4169
  154SAPE  H10S17054   1.724   1.839   6.463  0.1498  2.0714  0.9847
  154SAPE  C21117055   1.821   1.667   6.528  0.2558  0.2661 -0.1965
  154SAPE  H11R17056   1.821   1.625   6.630 -0.2460  2.4126  0.7340
  154SAPE  C21217057   1.819   1.583   6.428 -0.4415 -0.0287 -0.3249
  154SAPE  H12R17058   1.813   1.475   6.445  0.1539  0.0732  0.6356
  154SAPE  C21317059   1.816   1.622   6.279 -0.2959  1.9473 -0.5310
  154SAPE  H13R17060   1.788   1.727   6.254  1.3983  1.9263 -2.8625
  154SAPE  H13S17061   1.737   1.562   6.229  2.0588 -0.0794 -1.9938
  154SAPE  C21417062   1.942   1.583   6.199 -0.5682  0.6450 -0.1277
  154SAPE  H14R17063   2.029   1.609   6.263 -0.0061  3.4341 -1.8644
  154SAPE  C21517064   1.950   1.529   6.077 -0.0605  0.3810 -0.0144
  154SAPE  H15R17065   2.047   1.521   6.026 -0.4000 -0.1018 -0.6027
  154SAPE  C21617066   1.840   1.486   5.987 -0.1762  0.1154 -0.3710
  154SAPE  H16R17067   1.744   1.482   6.044 -0.2613 -1.4353 -0.6018
  154SAPE  H16S17068   1.849   1.379   5.961  0.8543 -0.0526  0.5780
  154SAPE  C21717069   1.850   1.567   5.863 -0.2414  0.0357 -1.1901
  154SAPE  H17R17070   1.944   1.545   5.808  0.9289  1.1034  0.2682
  154SAPE  H17S17071   1.849   1.676   5.886 -0.7400 -0.1848 -0.0863
  154SAPE  C21817072   1.729   1.540   5.764 -0.8743 -0.1049 -0.4891
  154SAPE  H18R17073   1.631   1.556   5.815 -0.0509 -0.9561  1.4738
  154SAPE  H18S17074   1.728   1.431   5.741  0.1468 -0.3824  0.6643
  154SAPE  C21917075   1.741   1.610   5.633  0.0782  0.2023 -0.0610
  154SAPE  H19R17076   1.655   1.573   5.572 -0.4381 -0.2067  0.8951
  154SAPE  H19S17077   1.831   1.588   5.572  0.4763  1.5532  0.0052
  154SAPE  C22017078   1.729   1.761   5.643 -0.0096 -0.4310 -0.3979
  154SAPE  H20R17079   1.742   1.800   5.539 -1.4422  0.1078 -0.3884
  154SAPE  H20S17080   1.819   1.805   5.693  1.1515  0.1689 -2.8465
  154SAPE  H20T17081   1.644   1.803   5.701  0.4462  2.6669 -1.7538
  154SAPE   C3317082   2.813   2.242   6.704 -0.2588  0.1198  0.3710
  154SAPE   H3X17083   2.752   2.150   6.691  0.7526 -0.5912  0.5085
  154SAPE   H3Y17084   2.913   2.211   6.742  0.8082  2.2581 -0.5119
  154SAPE   C3417085   2.818   2.314   6.567 -0.3846  0.2996 -0.0214
  154SAPE   H4X17086   2.882   2.406   6.569 -0.6826  0.6637 -3.2374
  154SAPE   H4Y17087   2.719   2.360   6.546 -0.4586  1.1426  1.8671
  154SAPE   C3517088   2.867   2.224   6.448  0.4028 -0.2376  0.2423
  154SAPE   H5X17089   2.780   2.156   6.437 -0.2576  0.7508 -0.7803
  154SAPE   H5Y17090   2.963   2.169   6.463  0.8774  0.2742 -0.7939
  154SAPE   C3617091   2.861   2.310   6.324 -0.6470  0.2849  0.4114
  154SAPE   H6X17092   2.916   2.404   6.344  2.0630 -1.2419  0.5596
  154SAPE   H6Y17093   2.756   2.336   6.297 -1.3747 -0.5876  2.2123
  154SAPE   C3717094   2.928   2.225   6.210  0.2212  0.0922 -0.1196
  154SAPE   H7X17095   2.880   2.126   6.198  1.0132 -0.3322  0.1483
  154SAPE   H7Y17096   3.031   2.201   6.245  0.3592  0.3606 -0.3334
  154SAPE   C3817097   2.931   2.299   6.080  0.3812 -0.4950 -0.4639
  154SAPE   H8X17098   2.969   2.402   6.094  1.8209 -1.0441 -0.2012
  154SAPE   H8Y17099   2.828   2.319   6.043  0.9579  2.0917 -0.8325
  154SAPE   C3917100   3.005   2.219   5.978  0.0079 -1.0392  0.4351
  154SAPE   H9X17101   2.930   2.144   5.944  0.0328 -1.2377  0.8136
  154SAPE   H9Y17102   3.095   2.170   6.020 -0.9264 -0.6414  3.1370
  154SAPE  C31017103   3.040   2.308   5.849  0.9557 -1.4033  0.3025
  154SAPE  H10X17104   3.099   2.243   5.781 -1.2805 -2.4054 -0.7818
  154SAPE  H10Y17105   3.107   2.380   5.899  0.1581 -0.2198 -0.2880
  154SAPE  C31117106   2.921   2.379   5.772 -0.1036  0.2088  0.3955
  154SAPE  H11X17107   2.970   2.450   5.701  1.9679 -2.3067 -0.8650
  154SAPE  H11Y17108   2.847   2.442   5.826 -2.0652 -1.3822 -0.3233
  154SAPE  C31217109   2.839   2.279   5.683 -0.0991  1.1006 -0.6830
  154SAPE  H12X17110   2.761   2.249   5.756  0.1698  2.0824  0.0328
  154SAPE  H12Y17111   2.906   2.193   5.660 -0.9730  0.2342 -0.0418
  154SAPE  C31317112   2.771   2.334   5.556 -0.1439  0.2444 -0.5014
  154SAPE  H13X17113   2.728   2.244   5.508 -2.3803  0.5614  0.7477
  154SAPE  H13Y17114   2.854   2.372   5.493  1.4047  0.0455  1.3175
  154SAPE  C31417115   2.645   2.418   5.586  0.8119  0.4868 -0.5375
  154SAPE  H14X17116   2.680   2.517   5.622  2.3850 -0.3404  0.3299
  154SAPE  H14Y17117   2.590   2.370   5.670  0.8325  3.6524  1.4365
  154SAPE  C31517118   2.543   2.425   5.467  0.9102  0.4461 -0.0018
  154SAPE  H15X17119   2.508   2.325   5.432  0.4307  0.1640  1.2029
  154SAPE  H15Y17120   2.585   2.487   5.386 -0.4323  1.0427 -0.2656
  154SAPE  C31617121   2.406   2.499   5.500 -0.1585  0.9925 -0.1080
  154SAPE  H16X17122   2.339   2.443   5.568 -0.6410  1.4599 -0.1924
  154SAPE  H16Y17123   2.353   2.509   5.403 -1.8297  3.0825  0.9316
  154SAPE  C31717124   2.422   2.643   5.550  0.0628 -0.5442  0.5045
  154SAPE  H17X17125   2.493   2.700   5.486 -3.7602  3.3519 -0.7176
  154SAPE  H17Y17126   2.470   2.636   5.650  0.4279  0.8274  0.4337
  154SAPE  C31817127   2.290   2.721   5.571  0.4382  0.2577  0.0760
  154SAPE  H18X17128   2.301   2.821   5.619 -3.0181  0.2376  1.1834
  154SAPE  H18Y17129   2.228   2.681   5.653  1.0382  2.7569  1.8882
  154SAPE  H18Z17130   2.224   2.729   5.482 -1.0742 -2.4380  0.8746
  155SAPE     N17131   3.218   2.806   7.776  0.2965  0.2568  0.4728
  155SAPE   HN117132   3.239   2.882   7.843 -0.3068  1.3399 -0.5284
  155SAPE   HN217133   3.143   2.736   7.794  1.5396 -1.7531 -1.5670
  155SAPE   HN317134   3.300   2.745   7.757  0.2811  0.2836  0.3212
  155SAPE   C1217135   3.168   2.864   7.638 -0.4375 -0.8406  0.2248
  155SAPE  H12A17136   3.244   2.941   7.613 -2.7325  1.3198 -0.6205
  155SAPE  H12B17137   3.075   2.922   7.660 -0.4990 -0.3232 -1.2432
  155SAPE   C1117138   3.164   2.755   7.534  1.0141  0.0947 -0.3626
  155SAPE  H11A17139   3.262   2.706   7.517  0.9179 -0.2614  0.1032
  155SAPE  H11B17140   3.144   2.807   7.437  2.4920  2.0053  0.2865
  155SAPE     P17141   2.920   2.662   7.507  0.3605  0.5429  0.3133
  155SAPE   O1317142   2.865   2.523   7.513 -0.3018  0.3016 -0.3535
  155SAPE   O1417143   2.845   2.779   7.570  0.1837  0.3304  0.2304
  155SAPE   O1217144   3.070   2.653   7.566  0.1546  0.0520 -0.1908
  155SAPE   O1117145   2.956   2.697   7.363  0.5030 -0.9158 -0.3746
  155SAPE    C117146   3.013   2.617   7.261  0.2656 -0.1473  0.4998
  155SAPE    HA17147   3.124   2.619   7.269  0.2339 -0.0343  0.9628
  155SAPE    HB17148   2.979   2.511   7.266  0.0823 -0.0437  1.7949
  155SAPE    C217149   2.971   2.672   7.118 -0.2345  0.9104  0.1758
  155SAPE    HS17150   2.981   2.783   7.119 -0.7493  0.9612  0.0529
  155SAPE   O2117151   2.841   2.629   7.082 -0.1314 -0.2820  0.4441
  155SAPE   C2117152   2.753   2.729   7.047  0.2627 -0.3091 -0.7687
  155SAPE   O2217153   2.786   2.848   7.057  0.0961  0.3608 -0.3122
  155SAPE   C2217154   2.620   2.663   7.009  0.0420  0.0153  0.1390
  155SAPE   H2R17155   2.639   2.570   6.952 -5.3038 -1.5954  0.4381
  155SAPE   H2S17156   2.555   2.633   7.094 -0.2537 -1.0094 -0.4387
  155SAPE    C317157   3.062   2.615   6.999  0.0947 -0.4002 -0.1130
  155SAPE    HX17158   3.025   2.519   6.956  1.0456 -0.6000 -0.5150
  155SAPE    HY17159   3.164   2.592   7.037 -0.1733  1.4328  1.9413
  155SAPE   O3117160   3.091   2.715   6.896  0.1080 -0.2921 -0.0999
  155SAPE   C3117161   3.001   2.718   6.798  0.2116 -0.0017 -0.4668
  155SAPE   O3217162   2.897   2.655   6.797  0.0537 -0.5488 -0.6941
  155SAPE   C3217163   3.048   2.811   6.684  0.1463 -0.2395  0.4118
  155SAPE   H2X17164   2.977   2.796   6.601 -0.8762  2.7282  0.6305
  155SAPE   H2Y17165   3.150   2.785   6.648 -0.1068 -1.9790  0.8622
  155SAPE   C2317166   2.526   2.759   6.924  0.5405  0.5185  0.5778
  155SAPE   H3R17167   2.570   2.788   6.826  1.8618 -0.8367  0.7221
  155SAPE   H3S17168   2.486   2.837   6.992  0.2300 -0.6231  1.7550
  155SAPE   C2417169   2.391   2.692   6.876 -0.9191  0.0859  0.7875
  155SAPE   H4R17170   2.344   2.779   6.825 -0.9817 -0.1351  0.4655
  155SAPE   H4S17171   2.321   2.674   6.960 -1.6615 -0.6172  0.0364
  155SAPE   C2517172   2.407   2.568   6.798 -0.1843  0.3292 -0.4670
  155SAPE   H5R17173   2.376   2.469   6.837  0.1198 -0.5741 -2.3809
  155SAPE   C2617174   2.445   2.559   6.671 -0.0218 -1.1077 -0.4583
  155SAPE   H6R17175   2.456   2.463   6.618 -0.0952  0.3141 -3.2024
  155SAPE   C2717176   2.477   2.674   6.575  0.0674 -0.0937  0.0164
  155SAPE   H7R17177   2.436   2.770   6.613 -0.8784 -1.1099  1.6563
  155SAPE   H7S17178   2.419   2.657   6.482  0.9669  0.0639 -0.5846
  155SAPE   C2817179   2.629   2.670   6.564  0.3730 -0.4875  0.2314
  155SAPE   H8R17180   2.676   2.670   6.663 -0.5479  0.4182  0.6946
  155SAPE   C2917181   2.696   2.680   6.447 -0.3927  0.6288 -0.4867
  155SAPE   H9R17182   2.806   2.670   6.452 -0.3634  0.7644 -0.8263
  155SAPE  C21017183   2.641   2.692   6.305  0.8828  0.0689  0.2371
  155SAPE  H10R17184   2.546   2.635   6.308  1.1943 -0.4187  2.4515
  155SAPE  H10S17185   2.700   2.643   6.225  1.5837  1.0606  0.1245
  155SAPE  C21117186   2.605   2.834   6.274 -0.3247 -0.3161 -0.2616
  155SAPE  H11R17187   2.574   2.890   6.363 -0.7148 -2.3521  0.9568
  155SAPE  C21217188   2.613   2.898   6.158 -0.1191  0.0704  0.2010
  155SAPE  H12R17189   2.589   3.005   6.150 -1.6244 -0.3534 -1.6468
  155SAPE  C21317190   2.650   2.847   6.025 -0.0792  0.2561  0.6638
  155SAPE  H13R17191   2.681   2.741   6.026 -2.9046 -0.6357  1.9234
  155SAPE  H13S17192   2.730   2.910   5.981  0.5539 -1.0753 -0.1651
  155SAPE  C21417193   2.524   2.859   5.935  0.1030 -0.8257 -0.4219
  155SAPE  H14R17194   2.431   2.830   5.987  0.2056 -2.4350 -1.0684
  155SAPE  C21517195   2.528   2.880   5.796  0.3741 -0.2192  0.3137
  155SAPE  H15R17196   2.439   2.912   5.740  0.1599  0.4137  0.9888
  155SAPE  C21617197   2.660   2.909   5.723 -0.3173 -0.0420  0.5157
  155SAPE  H16R17198   2.726   2.969   5.789 -1.7089  0.5452  1.4100
  155SAPE  H16S17199   2.648   2.976   5.636 -1.0886 -0.7324  0.0727
  155SAPE  C21717200   2.740   2.788   5.677 -0.5287  0.2846  0.2329
  155SAPE  H17R17201   2.690   2.738   5.591  0.0749  0.1592 -0.0460
  155SAPE  H17S17202   2.761   2.718   5.760  2.3145  0.5960 -0.1431
  155SAPE  C21817203   2.876   2.827   5.619  0.0134 -0.4157  0.8421
  155SAPE  H18R17204   2.931   2.852   5.711  0.5127  0.2432  0.3671
  155SAPE  H18S17205   2.866   2.911   5.547 -0.6927 -1.1453  0.0599
  155SAPE  C21917206   2.937   2.704   5.551  0.7568 -0.4693  0.2214
  155SAPE  H19R17207   2.873   2.652   5.476  0.9934  1.3060 -1.3032
  155SAPE  H19S17208   2.957   2.624   5.626 -2.1314 -2.8061 -1.2672
  155SAPE  C22017209   3.065   2.741   5.479  0.7346 -0.1281 -0.0515
  155SAPE  H20R17210   3.038   2.813   5.398 -2.2840 -1.4873 -0.3979
  155SAPE  H20S17211   3.127   2.656   5.444  0.2898  0.0435 -1.3392
  155SAPE  H20T17212   3.137   2.791   5.547  1.9852  2.8177 -3.2119
  155SAPE   C3317213   3.057   2.957   6.720  0.1270  0.2830 -0.4415
  155SAPE   H3X17214   3.110   3.019   6.645  2.5939 -0.6294  0.4443
  155SAPE   H3Y17215   3.122   2.979   6.807  0.3505 -1.3835 -0.1403
  155SAPE   C3417216   2.917   3.015   6.751  0.2056 -0.0913  0.0102
  155SAPE   H4X17217   2.885   2.974   6.849  2.9349  1.2132  1.5677
  155SAPE   H4Y17218   2.854   2.965   6.674  2.8261 -1.2218 -1.5361
  155SAPE   C3517219   2.899   3.170   6.745 -0.7171 -0.0127 -0.4770
  155SAPE   H5X17220   2.930   3.208   6.645  1.5244 -1.1520 -0.2660
  155SAPE   H5Y17221   2.973   3.203   6.820 -2.7358 -0.6110  1.9186
  155SAPE   C3617222   2.758   3.210   6.801 -1.0505 -0.0726  1.1054
  155SAPE   H6X17223   2.742   3.320   6.800  0.6947  0.2416  2.9883
  155SAPE   H6Y17224   2.744   3.179   6.907 -2.0689  1.1410  1.3468
  155SAPE   C3717225   2.645   3.145   6.710  0.2052 -0.3270  0.6273
  155SAPE   H7X17226   2.557   3.110   6.768 -0.6626 -1.7363 -1.4316
  155SAPE   H7Y17227   2.689   3.059   6.656  0.5829 -1.1832  2.2273
  155SAPE   C3817228   2.595   3.251   6.602 -0.2780  0.5366  0.0598
  155SAPE   H8X17229   2.687   3.304   6.569 -1.7679  2.3669 -1.3843
  155SAPE   H8Y17230   2.526   3.321   6.653 -1.4488  0.7962 -1.7744
  155SAPE   C3917231   2.515   3.181   6.491 -0.4984  0.3591 -0.1311
  155SAPE   H9X17232   2.421   3.131   6.522  0.0376 -0.6356 -0.0664
  155SAPE   H9Y17233   2.580   3.107   6.440  0.9258  1.9204 -0.6974
  155SAPE  C31017234   2.481   3.283   6.383  1.2651 -0.0663  0.4659
  155SAPE  H10X17235   2.410   3.360   6.420  1.3496  0.6279 -0.7645
  155SAPE  H10Y17236   2.432   3.234   6.296  0.9384  2.9282 -1.1924
  155SAPE  C31117237   2.599   3.364   6.323  0.5841 -1.1088 -0.2288
  155SAPE  H11X17238   2.677   3.294   6.286  1.9329 -0.1840  0.7461
  155SAPE  H11Y17239   2.639   3.437   6.396  0.4384 -1.0880 -0.1694
  155SAPE  C31217240   2.542   3.460   6.217 -0.2788 -0.3811  0.6976
  155SAPE  H12X17241   2.484   3.543   6.262 -1.7073 -1.7680  1.5357
  155SAPE  H12Y17242   2.461   3.418   6.153  0.5694  0.0270 -0.6761
  155SAPE  C31317243   2.666   3.511   6.133  0.0359 -0.5100 -0.1837
  155SAPE  H13X17244   2.728   3.564   6.209 -2.4627 -0.7055  2.1243
  155SAPE  H13Y17245   2.645   3.598   6.067  1.0328 -0.0362  0.1085
  155SAPE  C31417246   2.754   3.408   6.062  0.5463  0.1922  0.3456
  155SAPE  H14X17247   2.775   3.313   6.117 -2.3380 -0.2795  0.8077
  155SAPE  H14Y17248   2.849   3.461   6.040 -1.3001  4.1872  1.1643
  155SAPE  C31517249   2.693   3.361   5.929 -0.2127 -0.6292  0.2814
  155SAPE  H15X17250   2.688   3.444   5.856  2.9929  1.8476  2.5895
  155SAPE  H15Y17251   2.594   3.315   5.949  0.8283 -2.5962  1.2325
  155SAPE  C31617252   2.759   3.240   5.852 -0.3924  0.2731  0.1905
  155SAPE  H16X17253   2.694   3.239   5.762 -0.1158  0.9170 -0.0199
  155SAPE  H16Y17254   2.749   3.154   5.922 -0.6236  1.4125  1.5903
  155SAPE  C31717255   2.901   3.267   5.820  0.5101 -0.7231 -0.4720
  155SAPE  H17X17256   2.962   3.295   5.908 -1.2194 -0.4467  0.6980
  155SAPE  H17Y17257   2.918   3.349   5.747  2.3498 -0.7723 -0.1412
  155SAPE  C31817258   2.966   3.147   5.757  0.2489  0.8039  0.9162
  155SAPE  H18X17259   2.955   3.051   5.812 -1.3462  0.0344 -0.6496
  155SAPE  H18Y17260   3.070   3.158   5.720 -0.2166 -0.9895 -1.1475
  155SAPE  H18Z17261   2.907   3.117   5.668  1.4560 -1.4052  0.7863
  156SAPE     N17262   4.849   1.905   7.623 -0.0088  0.0240 -0.3255
  156SAPE   HN117263   4.920   1.979   7.604  0.0304  0.6939  2.0240
  156SAPE   HN217264   4.840   1.891   7.726 -1.7563  1.4716 -0.2196
  156SAPE   HN317265   4.893   1.819   7.584 -0.4271 -0.8465  1.0373
  156SAPE   C1217266   4.721   1.946   7.554  0.4336 -0.0598  0.4219
  156SAPE  H12A17267   4.659   2.008   7.622  1.0583  1.4985 -0.3833
  156SAPE  H12B17268   4.661   1.856   7.528 -1.3964  1.2497 -0.0746
  156SAPE   C1117269   4.742   2.021   7.425 -0.8392 -0.2430 -0.3822
  156SAPE  H11A17270   4.639   2.027   7.383 -0.4136  1.7848 -1.2485
  156SAPE  H11B17271   4.810   1.964   7.359  2.2198  2.0038  0.6033
  156SAPE     P17272   4.711   2.282   7.479 -0.4506  0.0613  0.1535
  156SAPE   O1317273   4.612   2.247   7.583  0.1167 -0.2311 -0.5152
  156SAPE   O1417274   4.799   2.403   7.501  0.3104 -0.3192  0.4048
  156SAPE   O1217275   4.799   2.150   7.448 -0.1769  0.2980 -0.3101
  156SAPE   O1117276   4.630   2.299   7.352 -0.2215  0.0260 -0.8815
  156SAPE    C117277   4.672   2.267   7.216  0.4354  0.3997  0.0174
  156SAPE    HA17278   4.697   2.360   7.161  0.8925 -0.3329 -1.0490
  156SAPE    HB17279   4.761   2.199   7.214 -0.5814 -1.0279 -3.1809
  156SAPE    C217280   4.545   2.200   7.163  0.2624 -0.5015  0.6811
  156SAPE    HS17281   4.518   2.115   7.229  1.3088 -1.3641  0.0275
  156SAPE   O2117282   4.589   2.148   7.034  1.1043 -0.1413  1.1373
  156SAPE   C2117283   4.591   2.017   7.019 -0.2160  0.5216  0.3316
  156SAPE   O2217284   4.563   1.932   7.100 -0.0239 -0.2969 -0.3811
  156SAPE   C2217285   4.646   1.982   6.876 -0.0818  0.2278  0.2299
  156SAPE   H2R17286   4.565   1.926   6.825  0.0594 -0.2017  0.4754
  156SAPE   H2S17287   4.665   2.080   6.826  0.5991  0.5091  1.0212
  156SAPE    C317288   4.418   2.282   7.143 -0.3075 -0.7502 -0.1410
  156SAPE    HX17289   4.446   2.373   7.086  0.3319  1.3267  3.2029
  156SAPE    HY17290   4.377   2.320   7.239 -1.2861  0.9243 -1.1858
  156SAPE   O3117291   4.330   2.209   7.061  0.0714 -0.6115  0.1171
  156SAPE   C3117292   4.257   2.117   7.127 -0.0952  0.4829 -0.0107
  156SAPE   O3217293   4.275   2.088   7.248 -0.3404 -0.3510  0.5972
  156SAPE   C3217294   4.157   2.050   7.033 -0.1656 -0.0767 -0.0823
  156SAPE   H2X17295   4.080   2.122   6.995  0.4135 -0.7358 -2.6413
  156SAPE   H2Y17296   4.102   1.983   7.103 -1.0625  0.8964  0.1923
  156SAPE   C2317297   4.773   1.893   6.893  0.3144  0.9470  0.4747
  156SAPE   H3R17298   4.805   1.858   6.792  2.1656  0.8076  1.0850
  156SAPE   H3S17299   4.742   1.798   6.942 -2.8766  0.4476 -2.1548
  156SAPE   C2417300   4.890   1.958   6.967  0.4151  0.0213 -0.2771
  156SAPE   H4R17301   4.963   1.877   6.986 -1.0986 -1.0463  1.4177
  156SAPE   H4S17302   4.869   1.983   7.074 -0.2098 -1.1965 -0.0934
  156SAPE   C2517303   4.955   2.072   6.900  0.0156 -0.2446 -1.0293
  156SAPE   H5R17304   4.925   2.166   6.949  0.4595 -0.4710 -0.3039
  156SAPE   C2617305   5.017   2.077   6.782  0.2459 -0.1885 -0.8071
  156SAPE   H6R17306   5.042   2.179   6.748 -1.4310 -0.6908 -3.8675
  156SAPE   C2717307   5.049   1.966   6.682  0.5472 -0.3370 -0.3013
  156SAPE   H7R17308   4.999   1.872   6.713  0.0050 -0.0112 -0.1766
  156SAPE   H7S17309   5.155   1.934   6.683  1.2567  1.8413  1.1092
  156SAPE   C2817310   4.985   1.996   6.542 -0.0147  0.5931  0.6179
  156SAPE   H8R17311   4.883   2.038   6.547 -1.0447 -1.4019 -1.8702
  156SAPE   C2917312   5.043   2.007   6.418  0.0388  0.2070 -0.2830
  156SAPE   H9R17313   4.980   2.032   6.331  1.0074  2.2844 -0.4503
  156SAPE  C21017314   5.190   1.989   6.400 -0.0215  0.7053  0.2987
  156SAPE  H10R17315   5.203   1.953   6.296  0.8633  2.4346 -0.2410
  156SAPE  H10S17316   5.234   1.906   6.459 -1.4727 -0.5993 -0.4119
  156SAPE  C21117317   5.267   2.117   6.405  0.3287  0.1898 -0.5942
  156SAPE  H11R17318   5.269   2.170   6.502  1.3138  1.4436 -1.2738
  156SAPE  C21217319   5.343   2.177   6.312 -1.0216  0.3163 -0.7978
  156SAPE  H12R17320   5.404   2.263   6.344  0.2103 -1.0688  0.8112
  156SAPE  C21317321   5.375   2.131   6.173  0.1668 -0.5695 -0.1009
  156SAPE  H13R17322   5.345   2.211   6.102  0.2412 -1.5768 -1.3026
  156SAPE  H13S17323   5.333   2.034   6.137  0.7883  0.0762 -2.7615
  156SAPE  C21417324   5.522   2.116   6.161  0.6315 -0.3493  0.0053
  156SAPE  H14R17325   5.558   2.029   6.217 -0.5180 -1.3606 -0.7864
  156SAPE  C21517326   5.613   2.183   6.084  1.2147  0.4240  0.0750
  156SAPE  H15R17327   5.717   2.147   6.076  0.6981 -0.9072 -1.0677
  156SAPE  C21617328   5.578   2.288   5.986  0.0502 -0.5473 -0.2787
  156SAPE  H16R17329   5.470   2.312   5.981  0.3336  1.2326  1.1236
  156SAPE  H16S17330   5.595   2.256   5.881 -2.9742  1.0657 -1.3664
  156SAPE  C21717331   5.638   2.427   6.006 -0.0440  0.1128 -0.0330
  156SAPE  H17R17332   5.749   2.419   6.006  0.2611  1.8916  3.7731
  156SAPE  H17S17333   5.612   2.465   6.107  5.9899  4.8858  0.3289
  156SAPE  C21817334   5.585   2.522   5.899  0.4113  0.0720 -0.4148
  156SAPE  H18R17335   5.637   2.618   5.919  1.1655  0.0185 -1.9640
  156SAPE  H18S17336   5.475   2.529   5.912  0.5213 -1.1048  1.4455
  156SAPE  C21917337   5.607   2.469   5.759 -0.8007 -0.7222 -0.2019
  156SAPE  H19R17338   5.548   2.376   5.744  0.7161 -1.7305 -0.1172
  156SAPE  H19S17339   5.715   2.443   5.761 -0.5764  0.2593  0.9625
  156SAPE  C22017340   5.582   2.573   5.654 -0.4295  1.1613 -0.3022
  156SAPE  H20R17341   5.604   2.536   5.552  1.8734  0.9181  0.2181
  156SAPE  H20S17342   5.634   2.671   5.657 -1.3408  1.6690 -0.6334
  156SAPE  H20T17343   5.477   2.611   5.655  0.2481  3.2927 -1.9630
  156SAPE   C3317344   4.209   1.982   6.912  0.3725  0.7001  0.2822
  156SAPE   H3X17345   4.130   1.910   6.881  1.4878 -0.9555  1.0773
  156SAPE   H3Y17346   4.296   1.918   6.940  0.6785  0.9801 -0.0364
  156SAPE   C3417347   4.233   2.067   6.786  0.1010 -0.3973 -0.4452
  156SAPE   H4X17348   4.311   2.143   6.811  1.3588 -1.4588 -0.9869
  156SAPE   H4Y17349   4.136   2.114   6.760  0.5527 -0.5339 -2.5525
  156SAPE   C3517350   4.277   1.987   6.665  0.2265 -0.7932 -0.2957
  156SAPE   H5X17351   4.214   1.896   6.656 -0.4714 -0.1802 -2.2182
  156SAPE   H5Y17352   4.382   1.952   6.668  0.7325  0.5861  3.0402
  156SAPE   C3617353   4.269   2.068   6.533  0.7270 -0.3873  1.0179
  156SAPE   H6X17354   4.316   2.167   6.551 -0.5998  0.2903  0.8694
  156SAPE   H6Y17355   4.162   2.088   6.512  1.1878  3.9168  1.7900
  156SAPE   C3717356   4.320   1.980   6.416  0.2813 -0.5492 -0.5083
  156SAPE   H7X17357   4.274   2.013   6.320 -1.5631  0.7452  0.7601
  156SAPE   H7Y17358   4.275   1.880   6.435  0.7236 -0.6305  0.1375
  156SAPE   C3817359   4.473   1.971   6.398 -0.8194 -0.4028 -0.4581
  156SAPE   H8X17360   4.531   1.911   6.471 -3.0583 -2.1389  0.0237
  156SAPE   H8Y17361   4.512   2.074   6.412 -1.4878  0.2799 -3.0029
  156SAPE   C3917362   4.510   1.932   6.259 -0.1760  0.1138 -0.5711
  156SAPE   H9X17363   4.467   2.002   6.183  1.2940  0.8845 -0.7322
  156SAPE   H9Y17364   4.457   1.835   6.243 -1.0160  0.0760  2.0677
  156SAPE  C31017365   4.658   1.927   6.222 -1.1895 -0.2419  0.6282
  156SAPE  H10X17366   4.702   1.857   6.296  1.9735  0.6744 -0.2499
  156SAPE  H10Y17367   4.711   2.022   6.247 -0.3417 -0.4591 -0.2740
  156SAPE  C31117368   4.682   1.871   6.080 -0.5601 -0.4108 -0.2995
  156SAPE  H11X17369   4.639   1.952   6.017  0.5506 -0.6773 -1.4368
  156SAPE  H11Y17370   4.624   1.779   6.056  0.6044 -0.4644 -3.3429
  156SAPE  C31217371   4.828   1.839   6.049  0.6146  0.0770  0.4169
  156SAPE  H12X17372   4.821   1.796   5.947 -2.5551  1.2508  0.0299
  156SAPE  H12Y17373   4.871   1.767   6.122 -0.1670 -2.5687 -1.5658
  156SAPE  C31317374   4.921   1.956   6.038  0.3972  0.2317  0.0615
  156SAPE  H13X17375   4.926   1.991   6.143  0.6426 -1.5383  0.6733
  156SAPE  H13Y17376   4.881   2.039   5.976 -1.0923 -1.0106 -0.7038
  156SAPE  C31417377   5.063   1.923   6.008 -0.4095  0.3839  0.8540
  156SAPE  H14X17378   5.072   1.841   5.933  0.6899 -0.8203  2.2436
  156SAPE  H14Y17379   5.109   1.883   6.101 -0.8759 -0.6178  0.6591
  156SAPE  C31517380   5.133   2.038   5.930 -0.3170  0.3568 -0.2476
  156SAPE  H15X17381   5.157   2.115   6.006 -0.0711 -0.1279  0.1705
  156SAPE  H15Y17382   5.065   2.084   5.855  0.5032  1.7500 -0.1627
  156SAPE  C31617383   5.257   1.993   5.852  0.6739  0.4880 -0.5624
  156SAPE  H16X17384   5.211   1.909   5.796 -1.1466 -0.3594  1.9925
  156SAPE  H16Y17385   5.330   1.948   5.923  1.2734  0.8464 -0.9419
  156SAPE  C31717386   5.326   2.098   5.767  0.4120 -0.4705 -0.0015
  156SAPE  H17X17387   5.358   2.178   5.838 -0.3208 -0.5684  0.4505
  156SAPE  H17Y17388   5.255   2.152   5.700  1.3924  1.1684  0.2043
  156SAPE  C31817389   5.435   2.054   5.669 -0.1562  0.1604 -0.7681
  156SAPE  H18X17390   5.504   1.994   5.732 -1.9908  0.8998  2.1641
  156SAPE  H18Y17391   5.499   2.140   5.640  1.2117  0.7544  3.3492
  156SAPE  H18Z17392   5.404   1.973   5.599  1.3687 -1.6121  0.4975
  157SAPE     N17393   4.119   0.617   7.491  0.2507 -0.0016 -0.0798
  157SAPE   HN117394   4.176   0.535   7.464  0.7509  0.5243 -0.6340
  157SAPE   HN217395   4.077   0.665   7.409  0.3511  2.2481  1.0909
  157SAPE   HN317396   4.181   0.687   7.538  2.6378 -1.3950 -1.0069
  157SAPE   C1217397   4.021   0.593   7.609 -0.5651 -1.1038 -0.1022
  157SAPE  H12A17398   3.996   0.696   7.639 -0.9367 -1.2127 -0.0393
  157SAPE  H12B17399   4.078   0.535   7.686 -1.9587 -2.2789  0.0891
  157SAPE   C1117400   3.898   0.524   7.550  0.2892  0.2316 -0.2441
  157SAPE  H11A17401   3.865   0.574   7.457 -0.4223  1.5982  0.7005
  157SAPE  H11B17402   3.810   0.543   7.616 -0.5759  1.8055 -1.7965
  157SAPE     P17403   3.908   0.277   7.641 -0.3793  0.2454  0.5351
  157SAPE   O1317404   3.958   0.142   7.602 -0.2256  0.2547 -0.0574
  157SAPE   O1417405   3.955   0.335   7.766 -0.2732  0.3532 -0.3266
  157SAPE   O1217406   3.928   0.384   7.529  0.4170 -0.3316 -0.1994
  157SAPE   O1117407   3.754   0.269   7.660  0.1841  0.2077 -0.1080
  157SAPE    C117408   3.666   0.168   7.610  0.5328  0.3578  0.1590
  157SAPE    HA17409   3.705   0.065   7.619  1.0747  0.5286 -0.1772
  157SAPE    HB17410   3.575   0.171   7.673  1.5349  0.1890  1.6465
  157SAPE    C217411   3.630   0.190   7.458  0.4797 -0.7682  0.1640
  157SAPE    HS17412   3.551   0.115   7.437 -2.1179  1.4326  1.5681
  157SAPE   O2117413   3.740   0.174   7.369  0.6157  0.2511 -0.0566
  157SAPE   C2117414   3.770   0.049   7.342 -0.0904  0.1521 -0.9661
  157SAPE   O2217415   3.702  -0.049   7.370  0.0442 -0.1069  0.0353
  157SAPE   C2217416   3.902   0.044   7.262 -0.0451  0.7655 -0.3697
  157SAPE   H2R17417   3.922   0.141   7.212 -0.1330  0.5360 -0.8554
  157SAPE   H2S17418   3.979   0.012   7.335 -1.8652  0.3124  1.4473
  157SAPE    C317419   3.568   0.330   7.435  0.1208 -0.8967 -0.4651
  157SAPE    HX17420   3.655   0.399   7.431  0.6498 -1.5068  0.1297
  157SAPE    HY17421   3.513   0.366   7.524  1.5612 -1.9843  0.9257
  157SAPE   O3117422   3.492   0.351   7.315  0.0523 -0.2550 -0.0063
  157SAPE   C3117423   3.372   0.288   7.297  0.7633  1.1334  0.2613
  157SAPE   O3217424   3.319   0.218   7.386 -0.5600 -0.7978  0.0629
  157SAPE   C3217425   3.320   0.304   7.152  0.2277 -0.1974 -0.0282
  157SAPE   H2X17426   3.370   0.228   7.088 -1.3168 -0.3503 -1.1061
  157SAPE   H2Y17427   3.340   0.408   7.120 -2.2446  1.7885  4.0967
  157SAPE   C2317428   3.921  -0.048   7.139  0.0853  0.3661 -0.8646
  157SAPE   H3R17429   3.883  -0.152   7.146 -1.8668  0.8250 -3.1284
  157SAPE   H3S17430   4.030  -0.053   7.121  0.1122 -1.4982 -0.3905
  157SAPE   C2417431   3.858  -0.009   7.007  0.5675  0.0260  0.0454
  157SAPE   H4R17432   3.753   0.011   7.036 -0.4720 -2.8880 -1.2576
  157SAPE   H4S17433   3.847  -0.087   6.928  1.2281 -0.0977  0.0707
  157SAPE   C2517434   3.913   0.118   6.948 -0.1692 -0.2405  0.2680
  157SAPE   H5R17435   3.909   0.208   7.010  0.8700 -0.8904  1.3244
  157SAPE   C2617436   3.971   0.119   6.821  0.5210 -0.3374  0.0848
  157SAPE   H6R17437   4.023   0.212   6.794 -2.0281  1.6346  1.5808
  157SAPE   C2717438   3.977  -0.005   6.729 -0.1219  0.4352  0.0850
  157SAPE   H7R17439   3.993  -0.091   6.797  2.1684  0.9650  0.3078
  157SAPE   H7S17440   4.072  -0.001   6.671 -1.2346 -0.1967 -1.8507
  157SAPE   C2817441   3.847  -0.018   6.653  0.3450  0.3919 -0.0349
  157SAPE   H8R17442   3.780   0.066   6.676  1.4055  1.4981 -0.9187
  157SAPE   C2917443   3.816  -0.110   6.565 -0.6345  1.1212  0.1897
  157SAPE   H9R17444   3.713  -0.123   6.530 -1.2057 -1.2262  2.4551
  157SAPE  C21017445   3.913  -0.219   6.523  0.5523  0.1787  0.1148
  157SAPE  H10R17446   3.911  -0.310   6.587  0.8980 -1.6251 -2.2731
  157SAPE  H10S17447   4.012  -0.171   6.539  0.0105  1.7390 -0.8923
  157SAPE  C21117448   3.912  -0.275   6.382  0.6501 -0.3124 -0.2096
  157SAPE  H11R17449   3.861  -0.372   6.375  2.6373 -1.4539  0.5405
  157SAPE  C21217450   3.964  -0.212   6.281  0.6743 -0.2540 -0.1280
  157SAPE  H12R17451   3.945  -0.254   6.181 -1.5024 -1.8386  0.8718
  157SAPE  C21317452   4.032  -0.079   6.279  0.6016 -0.8442  0.1870
  157SAPE  H13R17453   4.138  -0.083   6.247  0.2591  2.9870 -1.9403
  157SAPE  H13S17454   4.050  -0.053   6.386  0.1895 -2.2662  0.6300
  157SAPE  C21417455   3.966   0.017   6.177 -0.0689  0.4010 -0.0699
  157SAPE  H14R17456   3.927  -0.015   6.080 -1.0416 -1.3055  0.8398
  157SAPE  C21517457   3.958   0.147   6.204  0.3004 -0.3785 -1.0563
  157SAPE  H15R17458   3.919   0.216   6.129 -0.1439 -0.3561 -0.8072
  157SAPE  C21617459   4.023   0.207   6.328  0.1847  0.0099 -0.0938
  157SAPE  H16R17460   3.990   0.144   6.413 -0.4052 -0.6048 -0.7656
  157SAPE  H16S17461   3.982   0.306   6.355  0.6215  0.1925 -0.0854
  157SAPE  C21717462   4.177   0.212   6.321 -0.2165  0.5145 -0.7951
  157SAPE  H17R17463   4.198   0.298   6.254 -0.2743  0.7908 -0.4670
  157SAPE  H17S17464   4.224   0.127   6.268 -1.4721 -1.4476  1.0350
  157SAPE  C21817465   4.242   0.198   6.459  0.0709  0.1139 -0.0993
  157SAPE  H18R17466   4.350   0.184   6.437 -0.1856 -1.5746 -0.4159
  157SAPE  H18S17467   4.204   0.106   6.508  2.3981 -1.2090 -0.6438
  157SAPE  C21917468   4.234   0.321   6.544 -0.6909 -0.4020  0.0629
  157SAPE  H19R17469   4.128   0.351   6.562 -1.0749 -1.1292 -0.8949
  157SAPE  H19S17470   4.272   0.411   6.491  0.3049 -0.2311  1.0372
  157SAPE  C22017471   4.302   0.298   6.675  0.5138  0.4261 -0.3307
  157SAPE  H20R17472   4.296   0.190   6.701 -2.1418  0.6214  0.1683
  157SAPE  H20S17473   4.263   0.368   6.752  2.4549  0.8976  0.2759
  157SAPE  H20T17474   4.410   0.323   6.667  0.3014  2.4372  1.9651
  157SAPE   C3317475   3.165   0.284   7.151 -0.7795  0.2930 -0.0279
  157SAPE   H3X17476   3.116   0.347   7.229 -2.6987 -0.6712 -0.4036
  157SAPE   H3Y17477   3.150   0.178   7.180  0.5790 -0.1718 -0.9610
  157SAPE   C3417478   3.105   0.310   7.014  0.0049  0.4306 -0.4481
  157SAPE   H4X17479   3.012   0.251   7.006  1.9998 -2.8942 -0.9373
  157SAPE   H4Y17480   3.164   0.266   6.931  1.9959 -0.0166  1.1291
  157SAPE   C3517481   3.075   0.461   6.984  0.5013 -0.4899 -0.5369
  157SAPE   H5X17482   3.173   0.514   6.986  0.1681  0.2388 -2.3148
  157SAPE   H5Y17483   3.014   0.501   7.067  1.0305 -5.0336  2.4626
  157SAPE   C3617484   3.016   0.467   6.846  0.1995 -0.4624  0.8624
  157SAPE   H6X17485   2.986   0.573   6.836  0.9030 -0.4463 -1.8198
  157SAPE   H6Y17486   2.933   0.393   6.846 -0.4940  0.1665 -2.7664
  157SAPE   C3717487   3.116   0.436   6.735  0.8001 -0.1658 -0.5796
  157SAPE   H7X17488   3.150   0.331   6.743 -1.1188 -0.8151 -0.3249
  157SAPE   H7Y17489   3.209   0.495   6.748  1.1258 -1.2763  3.5236
  157SAPE   C3817490   3.052   0.441   6.597 -0.0507  0.3225  0.6523
  157SAPE   H8X17491   3.035   0.542   6.554  1.9153  0.5069  0.2301
  157SAPE   H8Y17492   2.950   0.399   6.609  0.6316 -1.7756 -0.4401
  157SAPE   C3917493   3.127   0.355   6.498  0.6118 -0.0748 -0.3547
  157SAPE   H9X17494   3.108   0.247   6.514 -1.2024 -0.1707 -2.5211
  157SAPE   H9Y17495   3.233   0.387   6.502  0.4007  0.7186 -0.7542
  157SAPE  C31017496   3.073   0.376   6.357 -0.6351 -0.1528  0.5763
  157SAPE  H10X17497   3.096   0.478   6.319 -0.7996  0.3195  1.7091
  157SAPE  H10Y17498   2.962   0.376   6.358 -0.6362 -0.6642  1.4951
  157SAPE  C31117499   3.128   0.278   6.252 -0.2257 -0.4252 -0.2804
  157SAPE  H11X17500   3.106   0.173   6.279 -0.1440  0.5176  4.0781
  157SAPE  H11Y17501   3.237   0.300   6.251 -0.1850  0.2376  3.7584
  157SAPE  C31217502   3.080   0.300   6.109 -0.8085 -0.3254  0.2589
  157SAPE  H12X17503   3.107   0.401   6.072 -0.7110 -0.1566  0.7851
  157SAPE  H12Y17504   2.970   0.287   6.101 -0.8661  0.6510 -0.9609
  157SAPE  C31317505   3.146   0.212   6.001  0.2458 -0.2807 -0.9118
  157SAPE  H13X17506   3.162   0.109   6.040 -0.7352  0.0426  0.4002
  157SAPE  H13Y17507   3.246   0.248   5.968  0.1027 -0.6207 -1.7363
  157SAPE  C31417508   3.060   0.205   5.875 -0.6159 -0.4630  0.6552
  157SAPE  H14X17509   2.958   0.161   5.886 -0.7798 -0.6393 -1.2671
  157SAPE  H14Y17510   3.105   0.135   5.801  1.2588 -2.1323  3.1707
  157SAPE  C31517511   3.042   0.341   5.811 -0.6777 -1.4683  0.0014
  157SAPE  H15X17512   3.134   0.402   5.822 -0.9906 -0.6837 -1.5004
  157SAPE  H15Y17513   2.965   0.404   5.860 -0.1273  0.2109 -1.2079
  157SAPE  C31617514   3.000   0.327   5.662  0.2424  0.4016 -0.7121
  157SAPE  H16X17515   2.923   0.248   5.650 -0.2248  0.9952 -1.7330
  157SAPE  H16Y17516   3.082   0.309   5.589 -0.6271  1.8038 -2.0937
  157SAPE  C31717517   2.931   0.451   5.610  0.1945 -0.2817  0.1318
  157SAPE  H17X17518   2.992   0.538   5.644 -0.0875 -0.9996  2.6766
  157SAPE  H17Y17519   2.833   0.466   5.661 -0.4136  0.9441 -1.3083
  157SAPE  C31817520   2.916   0.454   5.455  0.6799 -0.4472  0.1436
  157SAPE  H18X17521   2.852   0.366   5.432 -0.3333 -0.5526  3.0205
  157SAPE  H18Y17522   3.015   0.452   5.405  0.5148 -1.2303 -0.1623
  157SAPE  H18Z17523   2.855   0.543   5.427 -0.2001  0.5431  4.5261
  158SAPE     N17524   1.115   5.927   7.814 -0.1718  0.5676 -0.1690
  158SAPE   HN117525   1.122   6.012   7.874 -0.5328 -1.1102  2.4395
  158SAPE   HN217526   1.013   5.922   7.795 -0.8394  0.4560  2.8584
  158SAPE   HN317527   1.144   5.842   7.867 -1.5177  0.1549 -0.0551
  158SAPE   C1217528   1.203   5.929   7.681  0.1085  0.4956  0.4518
  158SAPE  H12A17529   1.214   5.821   7.656  1.8082  0.1590  2.4267
  158SAPE  H12B17530   1.299   5.977   7.710  0.4290 -0.1277  0.4249
  158SAPE   C1117531   1.143   6.008   7.563 -0.1057  0.2534 -0.8899
  158SAPE  H11A17532   1.043   5.964   7.545  0.0692 -0.1637 -0.8595
  158SAPE  H11B17533   1.208   5.993   7.474  1.1814 -2.7763  0.4543
  158SAPE     P17534   1.073   6.254   7.502 -0.0295  0.2681  0.3072
  158SAPE   O1317535   0.926   6.264   7.524  0.1040  0.0382  0.1098
  158SAPE   O1417536   1.143   6.379   7.527  0.3736  0.0352  0.3111
  158SAPE   O1217537   1.132   6.144   7.597  0.0253 -1.0744 -0.3577
  158SAPE   O1117538   1.104   6.189   7.357  1.5436 -0.1887  0.2800
  158SAPE    C117539   1.227   6.220   7.288 -1.0144  0.0110  0.2212
  158SAPE    HA17540   1.211   6.318   7.238  0.9338  0.2649  0.0220
  158SAPE    HB17541   1.310   6.249   7.357 -0.4325  3.0361 -1.5493
  158SAPE    C217542   1.269   6.111   7.180 -0.1363 -0.8008 -0.0366
  158SAPE    HS17543   1.283   6.013   7.231 -0.7384 -0.4207  0.8737
  158SAPE   O2117544   1.384   6.156   7.105  0.2253  0.3855  0.4560
  158SAPE   C2117545   1.495   6.154   7.175  0.0265  0.1446  0.9980
  158SAPE   O2217546   1.517   6.092   7.276  0.3626  0.4734 -0.5071
  158SAPE   C2217547   1.602   6.235   7.116  0.0343 -0.4428  0.3604
  158SAPE   H2R17548   1.569   6.292   7.027  1.2848  3.8782  2.3596
  158SAPE   H2S17549   1.626   6.311   7.194  0.7113 -1.2392  0.9435
  158SAPE    C317550   1.148   6.088   7.085 -0.2099  0.6780 -0.3223
  158SAPE    HX17551   1.120   6.187   7.042  0.1576  0.7408 -0.4224
  158SAPE    HY17552   1.061   6.048   7.142 -0.1906 -0.3677 -1.0114
  158SAPE   O3117553   1.192   5.980   6.990  0.2449  0.7134  0.5904
  158SAPE   C3117554   1.158   5.862   7.010 -0.1382  0.4465  0.2345
  158SAPE   O3217555   1.111   5.816   7.111 -0.0769 -0.3223 -0.0809
  158SAPE   C3217556   1.172   5.776   6.891  0.4318 -0.2930  0.2396
  158SAPE   H2X17557   1.164   5.668   6.918 -1.8603 -0.3482 -0.4259
  158SAPE   H2Y17558   1.269   5.793   6.841 -0.8607 -0.7157 -2.6430
  158SAPE   C2317559   1.733   6.158   7.102  0.7863 -0.2162 -0.0267
  158SAPE   H3R17560   1.742   6.093   7.191 -3.4455  0.3186  1.0315
  158SAPE   H3S17561   1.813   6.233   7.111 -0.5059  1.1789  0.1660
  158SAPE   C2417562   1.745   6.056   6.983  0.2379 -0.1851 -0.0029
  158SAPE   H4R17563   1.656   5.990   6.991 -0.6648  1.0870  0.7433
  158SAPE   H4S17564   1.828   5.985   7.003 -1.4956 -2.7069 -1.1659
  158SAPE   C2517565   1.761   6.116   6.844 -0.2158  0.3112 -0.2622
  158SAPE   H5R17566   1.857   6.163   6.818  0.0189 -0.6246 -1.1864
  158SAPE   C2617567   1.688   6.073   6.742 -0.6246  0.3699  0.5466
  158SAPE   H6R17568   1.711   6.115   6.643 -0.1507 -3.5286 -1.1769
  158SAPE   C2717569   1.577   5.976   6.729 -0.7671 -0.3320  0.7328
  158SAPE   H7R17570   1.513   6.042   6.665  1.3111  1.1892  0.1031
  158SAPE   H7S17571   1.523   5.958   6.824 -1.5738 -1.9960  0.0030
  158SAPE   C2817572   1.608   5.837   6.666  0.7910  0.2715 -0.1022
  158SAPE   H8R17573   1.646   5.759   6.733  2.6583  0.2327 -1.1426
  158SAPE   C2917574   1.588   5.802   6.539 -0.0678  0.0128 -0.1674
  158SAPE   H9R17575   1.612   5.699   6.510  2.2008  1.3172 -3.6218
  158SAPE  C21017576   1.526   5.890   6.433 -0.1242  0.4858  0.7041
  158SAPE  H10R17577   1.605   5.932   6.367 -0.2863 -0.6253 -0.2221
  158SAPE  H10S17578   1.475   5.980   6.473 -0.5851 -0.2354  1.7988
  158SAPE  C21117579   1.421   5.809   6.358 -0.0561  0.3361  0.1426
  158SAPE  H11R17580   1.361   5.743   6.423 -0.6460  1.1702  0.4639
  158SAPE  C21217581   1.397   5.787   6.225  0.0392  0.2753 -0.8016
  158SAPE  H12R17582   1.323   5.710   6.200  0.8628 -1.5002  1.7994
  158SAPE  C21317583   1.457   5.861   6.109 -0.4404 -0.8085  0.0292
  158SAPE  H13R17584   1.464   5.971   6.128  0.0058 -0.7028 -0.7264
  158SAPE  H13S17585   1.398   5.845   6.017  0.3069 -0.0360 -0.5969
  158SAPE  C21417586   1.600   5.823   6.089 -0.0992  0.4458  0.2877
  158SAPE  H14R17587   1.660   5.869   6.168 -2.0018  4.1414 -0.2069
  158SAPE  C21517588   1.654   5.740   5.996  0.2736  0.5997 -0.4247
  158SAPE  H15R17589   1.763   5.726   6.001  0.2922  1.0278  0.5431
  158SAPE  C21617590   1.578   5.695   5.878  0.3178  0.6834  0.4058
  158SAPE  H16R17591   1.495   5.759   5.841 -2.0588 -3.0868 -1.4449
  158SAPE  H16S17592   1.532   5.595   5.888  1.8023 -0.1785 -0.8131
  158SAPE  C21717593   1.669   5.667   5.748  0.3590  0.2701  0.6495
  158SAPE  H17R17594   1.758   5.612   5.785  0.9859  1.0122  0.2649
  158SAPE  H17S17595   1.703   5.765   5.709 -1.5935  1.0355  0.7251
  158SAPE  C21817596   1.596   5.581   5.642  0.5857 -0.1138 -0.2802
  158SAPE  H18R17597   1.497   5.610   5.603 -0.4659 -4.3829 -1.3734
  158SAPE  H18S17598   1.570   5.491   5.703 -2.0572  1.5109  1.1802
  158SAPE  C21917599   1.689   5.544   5.530  0.0971 -0.2401  0.9397
  158SAPE  H19R17600   1.787   5.522   5.577 -0.4098 -1.4275  1.4785
  158SAPE  H19S17601   1.713   5.630   5.463 -0.8512 -1.1531 -0.6448
  158SAPE  C22017602   1.651   5.413   5.445  0.1096 -0.5970  0.0546
  158SAPE  H20R17603   1.594   5.433   5.352 -0.6755 -0.8512  0.4742
  158SAPE  H20S17604   1.582   5.361   5.515  0.0046  0.2825  0.6238
  158SAPE  H20T17605   1.746   5.363   5.416  1.9353  3.0119 -0.9107
  158SAPE   C3317606   1.057   5.793   6.787  0.4200 -0.4153  0.0481
  158SAPE   H3X17607   1.020   5.897   6.778  0.4492 -0.3641  0.4896
  158SAPE   H3Y17608   0.968   5.731   6.811 -0.8377  1.6223  0.9060
  158SAPE   C3417609   1.106   5.767   6.639  0.5063  0.3454 -0.7587
  158SAPE   H4X17610   1.124   5.658   6.636 -2.6364 -0.2541 -2.5075
  158SAPE   H4Y17611   1.196   5.830   6.621 -0.4403  2.3129  0.9102
  158SAPE   C3517612   1.000   5.792   6.531  0.8469 -0.4829 -0.6316
  158SAPE   H5X17613   0.995   5.902   6.518 -0.8499 -0.5196 -0.5390
  158SAPE   H5Y17614   0.901   5.742   6.546  0.5132 -0.2336 -1.8815
  158SAPE   C3617615   1.036   5.743   6.389 -0.4983  0.3253  0.2176
  158SAPE   H6X17616   1.037   5.632   6.384  0.2248  0.3479 -3.9762
  158SAPE   H6Y17617   1.142   5.773   6.375 -0.3757  0.0283  0.5012
  158SAPE   C3717618   0.957   5.800   6.274 -0.2336  0.1104  0.2668
  158SAPE   H7X17619   0.953   5.911   6.288 -2.4779  0.3259 -1.3901
  158SAPE   H7Y17620   0.852   5.763   6.276 -0.4288  0.4410 -1.5889
  158SAPE   C3817621   1.027   5.764   6.143 -0.1107  0.1996 -0.3099
  158SAPE   H8X17622   0.992   5.665   6.107  1.0253 -0.8264  1.2615
  158SAPE   H8Y17623   1.137   5.759   6.162 -0.2002 -1.2414 -0.1083
  158SAPE   C3917624   1.006   5.867   6.034  1.0448 -0.8061 -0.0981
  158SAPE   H9X17625   1.064   5.961   6.052 -2.8959  2.3117 -2.0738
  158SAPE   H9Y17626   0.899   5.898   6.039  1.6153  1.1396  1.5421
  158SAPE  C31017627   1.054   5.827   5.899 -0.0668 -0.0101  0.0831
  158SAPE  H10X17628   0.983   5.748   5.866 -0.0674 -0.2836  0.7107
  158SAPE  H10Y17629   1.156   5.784   5.899 -0.9736 -2.3219  0.8199
  158SAPE  C31117630   1.058   5.942   5.791 -0.7341  0.7569 -0.2682
  158SAPE  H11X17631   1.131   6.019   5.825  0.8015 -1.4135  1.6058
  158SAPE  H11Y17632   0.955   5.985   5.792 -1.1011 -0.0897  0.9722
  158SAPE  C31217633   1.085   5.906   5.643 -1.1470 -0.0773 -0.3880
  158SAPE  H12X17634   1.193   5.886   5.629 -1.3617  0.4656 -3.6543
  158SAPE  H12Y17635   1.062   5.996   5.581  0.2547 -0.0843 -0.9456
  158SAPE  C31317636   1.009   5.786   5.586 -0.0783  0.3156  0.4639
  158SAPE  H13X17637   0.902   5.793   5.615 -0.7260  0.9275 -1.8216
  158SAPE  H13Y17638   1.051   5.699   5.639 -1.0271 -0.1035  0.5519
  158SAPE  C31417639   1.029   5.766   5.438  0.0094 -0.1521 -0.0433
  158SAPE  H14X17640   1.135   5.736   5.423 -0.0002 -0.0141 -0.3969
  158SAPE  H14Y17641   1.003   5.850   5.370  2.3138 -0.6982 -1.7198
  158SAPE  C31517642   0.946   5.643   5.387  0.6169 -0.0599 -0.2532
  158SAPE  H15X17643   0.844   5.685   5.384  0.8202  0.3763 -2.8622
  158SAPE  H15Y17644   0.963   5.563   5.463 -0.6206 -0.4965 -0.4223
  158SAPE  C31617645   0.997   5.604   5.252 -0.2554  0.1262  0.9601
  158SAPE  H16X17646   1.100   5.563   5.263 -0.3142 -0.1092  0.6255
  158SAPE  H16Y17647   1.002   5.696   5.189  0.5472  1.2692  2.5939
  158SAPE  C31717648   0.912   5.493   5.192  0.1440 -0.1996  0.4194
  158SAPE  H17X17649   0.904   5.405   5.259 -0.4745 -0.2355  0.3100
  158SAPE  H17Y17650   0.963   5.449   5.104  0.2658 -0.3875  0.5846
  158SAPE  C31817651   0.770   5.532   5.154 -0.1839  0.0998 -0.0091
  158SAPE  H18X17652   0.714   5.444   5.115 -2.5965  2.1488 -1.5485
  158SAPE  H18Y17653   0.780   5.611   5.077  1.4117 -0.7466 -0.7062
  158SAPE  H18Z17654   0.710   5.564   5.242 -0.4887 -0.3122 -0.0635
  159SAPE     N17655   0.763   1.309   3.056  1.0619 -0.2264  0.2508
  159SAPE   HN117656   0.837   1.245   3.021  0.7635  0.0268 -0.8977
  159SAPE   HN217657   0.670   1.297   3.013  0.1041  2.6698  1.2852
  159SAPE   HN317658   0.797   1.403   3.027  0.4189  0.1409  0.6617
  159SAPE   C1217659   0.748   1.290   3.204 -0.7015  0.4288  0.8028
  159SAPE  H12A17660   0.710   1.187   3.219  0.9290 -0.4057 -0.4971
  159SAPE  H12B17661   0.679   1.365   3.249 -0.7083 -0.0180  1.5602
  159SAPE   C1117662   0.886   1.300   3.258  0.1716  0.8019  0.0390
  159SAPE  H11A17663   0.959   1.233   3.208 -2.2554  0.5645 -3.5329
  159SAPE  H11B17664   0.894   1.258   3.361  0.0422 -0.8049 -0.5859
  159SAPE     P17665   0.907   1.549   3.330 -0.0368  0.3625  0.6227
  159SAPE   O1317666   1.031   1.633   3.350  0.8337 -0.1370  0.5433
  159SAPE   O1417667   0.791   1.602   3.254 -0.3216 -0.3810 -0.8377
  159SAPE   O1217668   0.949   1.425   3.247  0.5059  0.0321 -0.4528
  159SAPE   O1117669   0.848   1.506   3.469 -0.5101 -0.2451 -0.4299
  159SAPE    C117670   0.916   1.441   3.574 -0.7433 -0.1758 -0.0915
  159SAPE    HA17671   0.957   1.340   3.552  1.4374  0.5247  0.4786
  159SAPE    HB17672   1.011   1.491   3.605 -0.2850 -1.0765 -0.0007
  159SAPE    C217673   0.821   1.431   3.694  0.2805 -0.5882 -0.4204
  159SAPE    HS17674   0.798   1.536   3.721  1.1486 -0.6097  0.4302
  159SAPE   O2117675   0.889   1.359   3.790 -0.4418  0.0900 -0.3894
  159SAPE   C2117676   0.863   1.395   3.913 -0.4255 -1.2321  0.1581
  159SAPE   O2217677   0.793   1.487   3.951 -0.3642  0.1007 -0.0817
  159SAPE   C2217678   0.933   1.291   4.011  0.3828 -0.4638 -0.9011
  159SAPE   H2R17679   0.862   1.260   4.091  1.2935  1.5156  0.7855
  159SAPE   H2S17680   0.976   1.203   3.959  0.4575 -1.1322  0.2529
  159SAPE    C317681   0.689   1.362   3.659 -0.0492 -0.3231 -0.1334
  159SAPE    HX17682   0.715   1.258   3.628  1.5168  0.5636 -1.9914
  159SAPE    HY17683   0.640   1.404   3.569  0.0769  1.1547  0.4569
  159SAPE   O3117684   0.590   1.354   3.771  0.1352 -0.6676 -0.6578
  159SAPE   C3117685   0.525   1.467   3.786  0.3727  0.0375 -0.2569
  159SAPE   O3217686   0.541   1.566   3.717  0.3882  0.9485  0.3275
  159SAPE   C3217687   0.414   1.465   3.892 -0.4146  0.1713  0.1596
  159SAPE   H2X17688   0.445   1.397   3.973  1.4545  0.9881  0.1840
  159SAPE   H2Y17689   0.318   1.434   3.846  0.4851 -1.6588 -0.5882
  159SAPE   C2317690   1.058   1.361   4.086 -0.2379  0.3754 -0.0395
  159SAPE   H3R17691   1.024   1.462   4.117 -1.1614 -0.3216  1.3168
  159SAPE   H3S17692   1.142   1.368   4.014 -0.0277 -1.0815  0.0279
  159SAPE   C2417693   1.091   1.294   4.223  0.5958  0.9275  0.4066
  159SAPE   H4R17694   1.004   1.333   4.280  0.5081  0.2000  0.7803
  159SAPE   H4S17695   1.178   1.345   4.268  0.7701  0.3729  0.7027
  159SAPE   C2517696   1.106   1.145   4.216 -0.7419  0.2548  0.6719
  159SAPE   H5R17697   1.160   1.102   4.131 -2.9137  1.7197 -1.6136
  159SAPE   C2617698   1.049   1.063   4.306 -0.3796 -0.0751  0.7738
  159SAPE   H6R17699   1.066   0.954   4.300  1.2729  0.2307 -1.1749
  159SAPE   C2717700   0.959   1.103   4.423 -0.0012  0.2019  0.2754
  159SAPE   H7R17701   0.870   1.037   4.420 -1.0771  1.5827  1.0556
  159SAPE   H7S17702   0.922   1.207   4.409 -1.4165 -0.3476 -0.2740
  159SAPE   C2817703   1.038   1.102   4.555  0.5825 -0.2674  0.1010
  159SAPE   H8R17704   1.138   1.143   4.540  0.4195  0.3419  0.6412
  159SAPE   C2917705   1.004   1.053   4.673  0.8507  0.2495  0.1953
  159SAPE   H9R17706   1.083   1.071   4.747  2.6280  2.1183 -2.0199
  159SAPE  C21017707   0.873   0.990   4.701  0.0576 -0.4251 -0.3132
  159SAPE  H10R17708   0.788   1.061   4.697 -2.0241 -2.7485  0.1633
  159SAPE  H10S17709   0.868   0.967   4.810  1.6956 -0.4356 -0.2185
  159SAPE  C21117710   0.845   0.852   4.637 -0.2810 -0.0814 -0.2957
  159SAPE  H11R17711   0.913   0.831   4.553  0.4233 -1.2239  0.5311
  159SAPE  C21217712   0.755   0.758   4.677 -0.3899 -0.6434  1.0676
  159SAPE  H12R17713   0.741   0.673   4.608  1.6908  0.8587 -1.3994
  159SAPE  C21317714   0.663   0.770   4.793  0.3006  0.3336  0.6024
  159SAPE  H13R17715   0.713   0.801   4.887  1.0360 -0.9330  0.6441
  159SAPE  H13S17716   0.630   0.668   4.821 -0.9299  1.5853  4.4240
  159SAPE  C21417717   0.552   0.867   4.785  0.1425  0.1986  0.3267
  159SAPE  H14R17718   0.587   0.966   4.753  0.3011  0.7548  2.0921
  159SAPE  C21517719   0.432   0.848   4.846  0.8818 -0.3246  0.1692
  159SAPE  H15R17720   0.361   0.929   4.826 -1.1810 -2.0875 -0.0430
  159SAPE  C21617721   0.372   0.721   4.891 -0.9026 -0.4263  0.0064
  159SAPE  H16R17722   0.391   0.643   4.813  0.8569 -2.9149  2.6853
  159SAPE  H16S17723   0.264   0.741   4.908 -0.5121  1.7568  0.1156
  159SAPE  C21717724   0.432   0.654   5.025 -0.0752 -0.2463  0.5310
  159SAPE  H17R17725   0.542   0.643   5.025  0.2259  2.0621  1.7169
  159SAPE  H17S17726   0.383   0.555   5.039 -0.7626  0.3363  2.7255
  159SAPE  C21817727   0.391   0.730   5.149 -0.0028 -0.0963  0.7832
  159SAPE  H18R17728   0.281   0.721   5.166 -0.9356  0.8874 -3.6056
  159SAPE  H18S17729   0.392   0.836   5.115  2.2316 -1.1120 -2.7369
  159SAPE  C21917730   0.463   0.706   5.280  0.4305 -1.0657 -0.2206
  159SAPE  H19R17731   0.433   0.603   5.311  0.1964 -1.0527 -0.3972
  159SAPE  H19S17732   0.423   0.761   5.367  0.7624 -2.1978  0.6782
  159SAPE  C22017733   0.613   0.721   5.285 -0.9347  0.6999 -0.1258
  159SAPE  H20R17734   0.636   0.821   5.241  0.5703 -0.1342 -1.3450
  159SAPE  H20S17735   0.655   0.646   5.215  0.2981  0.3145  0.9873
  159SAPE  H20T17736   0.643   0.702   5.390 -0.8410  1.3309 -0.0377
  159SAPE   C3317737   0.400   1.610   3.963 -0.1572 -0.3105 -0.6977
  159SAPE   H3X17738   0.321   1.662   3.904  0.4037 -1.2205 -2.3290
  159SAPE   H3Y17739   0.496   1.665   3.958  1.1065 -2.4002 -0.5898
  159SAPE   C3417740   0.349   1.602   4.109 -0.1318  0.0315 -0.4328
  159SAPE   H4X17741   0.417   1.541   4.172 -1.3026 -0.8495  0.0403
  159SAPE   H4Y17742   0.253   1.546   4.107 -1.6448  2.3833  1.1834
  159SAPE   C3517743   0.329   1.736   4.189 -0.3600 -0.1568 -0.0577
  159SAPE   H5X17744   0.258   1.789   4.122  2.7982 -0.5050 -4.0147
  159SAPE   H5Y17745   0.426   1.787   4.201 -0.5124 -0.1436  1.3538
  159SAPE   C3617746   0.268   1.702   4.326  0.6218  0.6872  0.2125
  159SAPE   H6X17747   0.349   1.655   4.386  1.4155  1.3485 -0.3213
  159SAPE   H6Y17748   0.176   1.648   4.296  0.8713  0.3052  0.1312
  159SAPE   C3717749   0.230   1.824   4.404 -0.5433  0.2447 -0.1883
  159SAPE   H7X17750   0.196   1.787   4.504 -1.8283 -4.8290 -2.1743
  159SAPE   H7Y17751   0.143   1.879   4.362 -0.6541  0.1406 -0.0970
  159SAPE   C3817752   0.330   1.935   4.428  0.3391  0.2717 -0.3766
  159SAPE   H8X17753   0.297   2.021   4.490  1.1875  1.5873 -1.6610
  159SAPE   H8Y17754   0.360   1.982   4.332  0.1513  1.9941  0.3656
  159SAPE   C3917755   0.456   1.890   4.494  0.3290  0.0216 -0.0132
  159SAPE   H9X17756   0.518   1.982   4.494 -2.2712  1.9064 -2.2046
  159SAPE   H9Y17757   0.504   1.802   4.445  0.2047 -0.4548  0.7013
  159SAPE  C31017758   0.448   1.871   4.651  0.6543 -0.0278 -0.4527
  159SAPE  H10X17759   0.426   1.764   4.674  3.7425 -0.3001  1.8689
  159SAPE  H10Y17760   0.372   1.936   4.699  0.0493 -0.8419 -0.2702
  159SAPE  C31117761   0.573   1.886   4.734 -0.2828  0.2426 -0.3367
  159SAPE  H11X17762   0.612   1.990   4.728 -1.1144  0.5363 -0.9446
  159SAPE  H11Y17763   0.652   1.820   4.693  0.9931  0.8562  1.0468
  159SAPE  C31217764   0.557   1.838   4.880  1.3964  0.0388  0.0030
  159SAPE  H12X17765   0.532   1.730   4.890  0.6804 -0.0295 -2.1377
  159SAPE  H12Y17766   0.476   1.893   4.933 -0.4969 -2.7298  0.2179
  159SAPE  C31317767   0.683   1.852   4.961 -0.6968  0.5724 -0.1939
  159SAPE  H13X17768   0.668   1.816   5.065  0.7292 -0.5416 -0.3515
  159SAPE  H13Y17769   0.710   1.959   4.970 -1.1166  0.4937  2.8962
  159SAPE  C31417770   0.802   1.775   4.901  0.0722  0.3107 -0.4468
  159SAPE  H14X17771   0.840   1.830   4.813 -1.3723 -0.1359 -1.3994
  159SAPE  H14Y17772   0.772   1.674   4.864 -0.0884  0.0540  0.3604
  159SAPE  C31517773   0.920   1.761   5.006 -0.1995 -0.5631 -0.5042
  159SAPE  H15X17774   1.010   1.712   4.962  1.4301  2.3044 -0.6412
  159SAPE  H15Y17775   0.896   1.714   5.103  1.3812  1.3507  0.8938
  159SAPE  C31617776   0.975   1.893   5.040 -0.4062  0.5222 -0.5031
  159SAPE  H16X17777   0.900   1.961   5.085 -1.0648 -0.3411 -0.2751
  159SAPE  H16Y17778   1.003   1.943   4.945 -1.3476  2.4578  0.1847
  159SAPE  C31717779   1.096   1.883   5.139 -0.4229 -0.2918 -0.0615
  159SAPE  H17X17780   1.134   1.780   5.121 -0.3908 -0.2916  0.0068
  159SAPE  H17Y17781   1.057   1.880   5.243 -1.2675 -1.5797 -0.3876
  159SAPE  C31817782   1.206   1.994   5.119 -0.4645 -0.1017 -0.8268
  159SAPE  H18X17783   1.223   2.018   5.012  0.0971  0.1329 -0.6905
  159SAPE  H18Y17784   1.303   1.962   5.163 -0.4628 -0.4020 -1.0425
  159SAPE  H18Z17785   1.163   2.083   5.169 -2.2519 -0.2285 -2.0612
  160SAPE     N17786   1.344   5.137   2.955  0.3299 -0.2895  0.2366
  160SAPE   HN117787   1.306   5.160   3.049  1.7716  1.3396  0.4892
  160SAPE   HN217788   1.446   5.119   2.959  0.6349 -0.0029 -3.1050
  160SAPE   HN317789   1.330   5.221   2.895 -0.2785  0.4694  1.3973
  160SAPE   C1217790   1.272   5.020   2.897  0.2132 -1.0159  0.4194
  160SAPE  H12A17791   1.300   5.017   2.789 -1.7614 -4.0308 -0.1166
  160SAPE  H12B17792   1.163   5.015   2.915  0.0439 -2.4843 -0.7986
  160SAPE   C1117793   1.329   4.887   2.950 -0.4625 -0.0182  0.0354
  160SAPE  H11A17794   1.310   4.805   2.878  3.3746 -0.9194 -0.1928
  160SAPE  H11B17795   1.282   4.845   3.041  1.2164 -0.3354  0.8027
  160SAPE     P17796   1.548   4.776   3.012 -0.0488 -0.5913  0.3254
  160SAPE   O1317797   1.539   4.684   2.900  0.0172 -0.5501 -0.2045
  160SAPE   O1417798   1.685   4.807   3.050  0.4103 -0.9505  0.7238
  160SAPE   O1217799   1.474   4.912   2.973  0.1791 -0.2515  0.1079
  160SAPE   O1117800   1.472   4.713   3.139 -0.2903  0.2205  0.5701
  160SAPE    C117801   1.474   4.779   3.263  0.8781 -0.3106  0.1731
  160SAPE    HA17802   1.548   4.862   3.266  1.1433 -0.5363 -0.0597
  160SAPE    HB17803   1.378   4.833   3.280 -0.3921 -1.0253 -3.6386
  160SAPE    C217804   1.501   4.672   3.372 -0.0776  0.8703 -0.8112
  160SAPE    HS17805   1.594   4.613   3.353 -1.7317 -1.2511 -2.8186
  160SAPE   O2117806   1.394   4.580   3.364  0.4241 -0.6264  0.0028
  160SAPE   C2117807   1.414   4.461   3.421 -0.6893  0.1630  0.6575
  160SAPE   O2217808   1.523   4.422   3.460  0.1673 -0.0243 -0.1282
  160SAPE   C2217809   1.290   4.379   3.392  0.1699  0.6936 -0.8982
  160SAPE   H2R17810   1.204   4.445   3.367  0.5870  0.6160 -2.6713
  160SAPE   H2S17811   1.306   4.322   3.298 -0.0522 -0.0010 -0.5250
  160SAPE    C317812   1.524   4.740   3.512 -0.2880  0.0755 -0.0093
  160SAPE    HX17813   1.430   4.798   3.527 -0.1603  0.2439  0.1460
  160SAPE    HY17814   1.615   4.802   3.498  0.7646 -1.8790 -2.6683
  160SAPE   O3117815   1.532   4.647   3.620 -0.6690 -0.4995 -0.2041
  160SAPE   C3117816   1.657   4.611   3.645 -0.1180  0.4602 -0.9892
  160SAPE   O3217817   1.758   4.642   3.583 -0.0675 -0.2792  0.0267
  160SAPE   C3217818   1.661   4.533   3.782 -0.3089 -0.4263 -0.4116
  160SAPE   H2X17819   1.688   4.427   3.761  0.6922 -0.5573  1.3902
  160SAPE   H2Y17820   1.555   4.532   3.816 -0.4178 -0.4431 -0.7463
  160SAPE   C2317821   1.247   4.275   3.498 -0.3554 -0.0259 -0.5866
  160SAPE   H3R17822   1.318   4.194   3.520  1.4429  1.9599  1.3443
  160SAPE   H3S17823   1.151   4.232   3.462 -1.1225  1.8993 -0.9904
  160SAPE   C2417824   1.217   4.333   3.638 -0.1691  0.7233  0.1647
  160SAPE   H4R17825   1.142   4.269   3.690 -0.8780  1.0973 -0.3727
  160SAPE   H4S17826   1.166   4.428   3.614 -0.2492  0.6764  0.1491
  160SAPE   C2517827   1.328   4.363   3.733  0.6450 -0.7526 -0.2586
  160SAPE   H5R17828   1.351   4.469   3.751 -1.0187 -0.8393  3.0212
  160SAPE   C2617829   1.406   4.287   3.805 -0.5851  1.2079  0.5296
  160SAPE   H6R17830   1.478   4.333   3.874 -0.4891  0.6796  0.7930
  160SAPE   C2717831   1.396   4.133   3.822 -0.1131 -0.2263  0.0526
  160SAPE   H7R17832   1.321   4.091   3.751  0.2407  0.7651 -0.9350
  160SAPE   H7S17833   1.349   4.122   3.922  0.9583  2.1384  0.8684
  160SAPE   C2817834   1.532   4.062   3.821  0.2797  0.0537  0.1755
  160SAPE   H8R17835   1.554   4.009   3.727  1.3524 -0.4590  0.7028
  160SAPE   C2917836   1.616   4.070   3.922 -0.0540 -0.4919  0.2530
  160SAPE   H9R17837   1.710   4.015   3.913  0.2363  0.0898 -0.3068
  160SAPE  C21017838   1.591   4.146   4.054  0.0386  0.1808  0.0733
  160SAPE  H10R17839   1.488   4.184   4.070 -0.7368 -1.8483  0.1271
  160SAPE  H10S17840   1.656   4.236   4.061 -3.0005  2.7045 -1.4421
  160SAPE  C21117841   1.623   4.062   4.172 -0.2497 -0.2044  0.2732
  160SAPE  H11R17842   1.722   4.015   4.166 -0.3920 -0.7539  1.7461
  160SAPE  C21217843   1.543   4.049   4.282 -0.2466 -0.7721  0.4646
  160SAPE  H12R17844   1.586   3.999   4.370 -0.4561 -2.2256 -0.2307
  160SAPE  C21317845   1.416   4.116   4.318 -0.3605  0.1578  1.3190
  160SAPE  H13R17846   1.403   4.210   4.260  0.7064 -0.5282 -0.1064
  160SAPE  H13S17847   1.430   4.154   4.421  1.0885  2.6072  0.3320
  160SAPE  C21417848   1.299   4.027   4.291  0.3138 -0.1718 -0.2811
  160SAPE  H14R17849   1.270   4.027   4.185  0.2310  1.6644 -0.2940
  160SAPE  C21517850   1.238   3.946   4.379  0.5173 -0.0834  0.6645
  160SAPE  H15R17851   1.149   3.893   4.341  0.2051 -0.5147  1.9542
  160SAPE  C21617852   1.256   3.941   4.530  0.3025 -0.4467  0.1170
  160SAPE  H16R17853   1.337   4.010   4.561  1.0986 -1.7562  1.0875
  160SAPE  H16S17854   1.282   3.845   4.578 -1.3930  0.1228  2.3846
  160SAPE  C21717855   1.128   3.981   4.600 -0.4116 -0.7475  0.3649
  160SAPE  H17R17856   1.039   3.926   4.564 -0.2684 -0.4697 -0.4227
  160SAPE  H17S17857   1.107   4.089   4.582 -0.5241 -0.9083 -0.5293
  160SAPE  C21817858   1.144   3.949   4.750 -0.6409  0.5279  0.1231
  160SAPE  H18R17859   1.225   4.011   4.794 -1.0580  2.4572 -1.7087
  160SAPE  H18S17860   1.165   3.840   4.762 -1.2213  0.5674  1.6772
  160SAPE  C21917861   1.018   3.989   4.832 -0.0888 -0.6278 -0.5792
  160SAPE  H19R17862   0.937   3.916   4.809 -0.9279 -0.3011  1.1892
  160SAPE  H19S17863   0.996   4.092   4.797 -0.7676 -0.9162 -1.0373
  160SAPE  C22017864   1.048   3.998   4.984 -0.2000 -0.2095  0.3781
  160SAPE  H20R17865   1.141   3.943   5.011 -1.2765 -0.6134  3.6042
  160SAPE  H20S17866   0.971   3.944   5.041  0.1071 -1.4638 -0.3641
  160SAPE  H20T17867   1.060   4.097   5.033  0.3543 -0.5572  0.9692
  160SAPE   C3317868   1.753   4.606   3.876  0.1990  0.1829  0.5937
  160SAPE   H3X17869   1.735   4.716   3.878 -0.9798  0.0446 -0.6436
  160SAPE   H3Y17870   1.853   4.573   3.841 -0.0863 -0.7297  0.6021
  160SAPE   C3417871   1.728   4.550   4.019 -0.2212  0.2023 -0.4019
  160SAPE   H4X17872   1.826   4.557   4.071 -0.3918  2.5492 -0.2833
  160SAPE   H4Y17873   1.702   4.442   4.016  2.0946 -0.4618  0.5934
  160SAPE   C3517874   1.620   4.630   4.098  0.3224  0.4494  1.0231
  160SAPE   H5X17875   1.522   4.609   4.050 -0.2734  1.9595  1.5133
  160SAPE   H5Y17876   1.640   4.739   4.091 -0.1135  0.4065 -1.9516
  160SAPE   C3617877   1.609   4.589   4.243  0.3062 -0.0929  0.0301
  160SAPE   H6X17878   1.702   4.619   4.296 -0.6845 -0.9903  2.4248
  160SAPE   H6Y17879   1.608   4.478   4.249  3.6246 -0.2363 -0.4369
  160SAPE   C3717880   1.504   4.672   4.311 -0.3255  0.9733 -0.4611
  160SAPE   H7X17881   1.405   4.634   4.278  0.2774 -0.7292 -0.3746
  160SAPE   H7Y17882   1.514   4.777   4.276 -2.2428  0.2862 -3.4773
  160SAPE   C3817883   1.515   4.662   4.457 -0.3653  0.5297 -0.2428
  160SAPE   H8X17884   1.610   4.712   4.488 -1.5847  1.5157  2.1686
  160SAPE   H8Y17885   1.514   4.558   4.495 -1.2661  0.6563  0.1026
  160SAPE   C3917886   1.414   4.752   4.530  0.8852  0.4235  0.4233
  160SAPE   H9X17887   1.313   4.706   4.528  1.2125 -0.4239 -3.3142
  160SAPE   H9Y17888   1.404   4.854   4.488  1.5292  0.2477 -0.1767
  160SAPE  C31017889   1.444   4.777   4.676  0.6435  0.0222 -0.5424
  160SAPE  H10X17890   1.531   4.847   4.675 -1.5133  2.9817  0.9738
  160SAPE  H10Y17891   1.482   4.686   4.726  2.5508  0.0250 -1.8632
  160SAPE  C31117892   1.324   4.843   4.761 -0.6537  1.2078  0.8499
  160SAPE  H11X17893   1.255   4.760   4.785  2.2719 -1.6847  0.0049
  160SAPE  H11Y17894   1.278   4.928   4.706 -3.4461 -0.1161  0.9893
  160SAPE  C31217895   1.391   4.884   4.898  0.1195  0.2461 -0.6522
  160SAPE  H12X17896   1.447   4.978   4.880 -1.2087  0.8999 -1.5585
  160SAPE  H12Y17897   1.455   4.798   4.928 -1.6272 -0.2408  1.9777
  160SAPE  C31317898   1.280   4.931   5.001 -0.3095  0.1745 -0.0559
  160SAPE  H13X17899   1.196   4.858   4.995  0.8066 -1.0357 -1.9463
  160SAPE  H13Y17900   1.230   5.024   4.968  0.3021  0.5817  0.1400
  160SAPE  C31417901   1.338   4.950   5.146  0.4606  0.1585  0.0656
  160SAPE  H14X17902   1.405   5.038   5.146  0.5167  0.1278  1.5097
  160SAPE  H14Y17903   1.404   4.861   5.156  1.4691  0.6376 -1.8175
  160SAPE  C31517904   1.221   4.948   5.246 -0.6322 -0.5186 -0.2829
  160SAPE  H15X17905   1.149   5.031   5.229  1.3410  1.4087  0.2365
  160SAPE  H15Y17906   1.272   4.972   5.342 -2.5659 -0.9415  0.8910
  160SAPE  C31617907   1.155   4.812   5.257  0.4513 -0.2147 -0.2396
  160SAPE  H16X17908   1.220   4.723   5.260 -0.6704 -1.0413  0.2794
  160SAPE  H16Y17909   1.093   4.804   5.165  1.3687  0.5702 -0.9516
  160SAPE  C31717910   1.051   4.801   5.367 -0.5410  0.4153  0.4740
  160SAPE  H17X17911   0.968   4.729   5.351 -0.3733  0.2087  0.5161
  160SAPE  H17Y17912   0.997   4.897   5.378 -0.2239  0.3939  2.5161
  160SAPE  C31817913   1.109   4.761   5.504 -0.4243 -0.1343  0.2667
  160SAPE  H18X17914   1.181   4.841   5.531  0.6073 -0.4563 -1.4489
  160SAPE  H18Y17915   1.167   4.666   5.506 -1.9888 -1.1238  0.6553
  160SAPE  H18Z17916   1.027   4.754   5.579 -1.2376 -0.8110 -0.6571
  161SAPE     N17917   6.264   2.087   3.465 -0.3127  0.2815 -0.0742
  161SAPE   HN117918   6.349   2.115   3.517 -2.2238 -0.9154  4.0618
  161SAPE   HN217919   6.202   2.170   3.460 -1.5503 -0.6807 -1.4972
  161SAPE   HN317920   6.222   2.008   3.518  0.5152  1.7405  2.9850
  161SAPE   C1217921   6.297   2.061   3.323  0.2079  0.4407 -0.6026
  161SAPE  H12A17922   6.214   2.001   3.281 -1.7381  2.9168 -0.6042
  161SAPE  H12B17923   6.378   1.986   3.324 -0.9360 -0.8359  0.5487
  161SAPE   C1117924   6.318   2.190   3.241  0.3222 -0.4103  0.0714
  161SAPE  H11A17925   6.351   2.163   3.138 -1.0602 -0.8742 -0.2835
  161SAPE  H11B17926   6.400   2.248   3.287 -0.7411  0.9372  0.3114
  161SAPE     P17927   6.157   2.386   3.321 -0.0188  0.1717 -0.1263
  161SAPE   O1317928   6.041   2.462   3.262 -0.3851  0.4718  0.3753
  161SAPE   O1417929   6.144   2.324   3.457 -0.1746  0.0712 -0.1885
  161SAPE   O1217930   6.194   2.268   3.221  0.1039  0.0218 -0.7428
  161SAPE   O1117931   6.292   2.469   3.315 -0.0779  0.9104  0.0264
  161SAPE    C117932   6.366   2.522   3.431 -0.1162  0.1224 -0.1820
  161SAPE    HA17933   6.336   2.472   3.526 -0.0979  0.7224  0.1440
  161SAPE    HB17934   6.474   2.509   3.412  0.3212  1.1712  1.3989
  161SAPE    C217935   6.338   2.670   3.454  0.7165  0.0272 -1.1479
  161SAPE    HS17936   6.395   2.711   3.540  0.1509  0.2248 -0.8591
  161SAPE   O2117937   6.191   2.698   3.473 -0.3513  0.6507 -0.0042
  161SAPE   C2117938   6.143   2.654   3.596 -0.8428  0.2117  0.6177
  161SAPE   O2217939   6.215   2.635   3.691  0.6870  0.2633 -0.2451
  161SAPE   C2217940   5.986   2.650   3.585  0.1003 -0.8754  0.0373
  161SAPE   H2R17941   5.964   2.623   3.480  0.8868 -0.9926 -0.1036
  161SAPE   H2S17942   5.950   2.574   3.658 -1.3052 -1.7292 -1.4929
  161SAPE    C317943   6.385   2.758   3.337  0.0284  0.0246 -0.0007
  161SAPE    HX17944   6.338   2.731   3.240  0.9991  0.8474 -0.7194
  161SAPE    HY17945   6.494   2.747   3.318  0.2353  2.5829 -0.7040
  161SAPE   O3117946   6.346   2.897   3.369 -0.6088 -0.3389  0.2910
  161SAPE   C3117947   6.437   2.964   3.449  0.2547  0.6721  0.3046
  161SAPE   O3217948   6.542   2.910   3.484 -0.6458 -0.6335 -0.1810
  161SAPE   C3217949   6.407   3.120   3.453 -0.3503  0.2973 -0.0106
  161SAPE   H2X17950   6.385   3.146   3.347  0.0599  1.5683  0.1948
  161SAPE   H2Y17951   6.508   3.165   3.465  0.4847 -0.7341 -2.5102
  161SAPE   C2317952   5.930   2.792   3.633  0.2379  0.0580  0.4403
  161SAPE   H3R17953   5.821   2.807   3.618  0.1860 -0.8993 -0.2747
  161SAPE   H3S17954   5.981   2.865   3.567  1.8186  1.2844  2.8715
  161SAPE   C2417955   5.973   2.829   3.772 -0.6526  0.1177  0.0145
  161SAPE   H4R17956   5.971   2.939   3.786 -0.6102  0.2954 -1.2317
  161SAPE   H4S17957   6.078   2.805   3.800 -0.7814 -1.3570 -0.6741
  161SAPE   C2517958   5.879   2.759   3.867 -0.0880  0.0914 -0.1693
  161SAPE   H5R17959   5.873   2.650   3.855 -3.0212  0.0378  1.0031
  161SAPE   C2617960   5.823   2.818   3.972  0.2629 -0.2706 -0.0775
  161SAPE   H6R17961   5.764   2.755   4.040  0.2875  0.8877  1.0590
  161SAPE   C2717962   5.820   2.964   4.020  0.6299 -0.1743 -0.1880
  161SAPE   H7R17963   5.722   2.987   4.066  0.2014 -1.7918 -0.2464
  161SAPE   H7S17964   5.833   3.028   3.930  1.2541  2.5582  1.6974
  161SAPE   C2817965   5.928   2.982   4.121  0.3727 -0.4541 -0.2041
  161SAPE   H8R17966   6.024   2.996   4.068  0.7670  0.2423  0.6775
  161SAPE   C2917967   5.909   2.994   4.259  0.0092 -0.6719  0.8266
  161SAPE   H9R17968   5.996   2.999   4.327  0.9825  2.5481 -0.4844
  161SAPE  C21017969   5.780   2.993   4.340  0.4321 -0.5271 -0.2870
  161SAPE  H10R17970   5.757   2.895   4.386 -0.0144 -0.6867 -0.8393
  161SAPE  H10S17971   5.697   3.010   4.267  0.6543 -0.3618 -0.5041
  161SAPE  C21117972   5.770   3.094   4.455 -0.2797 -0.1176  0.6319
  161SAPE  H11R17973   5.692   3.171   4.442 -3.2080 -3.0363 -0.5435
  161SAPE  C21217974   5.839   3.102   4.566 -0.0344 -0.3944 -0.4577
  161SAPE  H12R17975   5.833   3.197   4.620  1.4881 -0.1215 -0.7356
  161SAPE  C21317976   5.941   3.011   4.625 -0.4060 -0.0441  0.0246
  161SAPE  H13R17977   5.936   2.907   4.588  0.7216 -0.1027 -0.0085
  161SAPE  H13S17978   5.918   2.994   4.732 -2.4559 -0.3829 -0.4333
  161SAPE  C21417979   6.081   3.056   4.614 -0.5271  0.0900 -0.3585
  161SAPE  H14R17980   6.099   3.133   4.537  2.6807 -0.7306 -0.5688
  161SAPE  C21517981   6.181   3.031   4.704 -0.5263  0.4259  0.0479
  161SAPE  H15R17982   6.279   3.075   4.680 -1.1174  1.6551 -0.1865
  161SAPE  C21617983   6.163   2.945   4.824  0.5004 -0.3265 -0.3261
  161SAPE  H16R17984   6.216   2.850   4.804  0.4714 -0.8817  2.0444
  161SAPE  H16S17985   6.060   2.908   4.841  0.0358  0.3908 -1.3898
  161SAPE  C21717986   6.209   3.011   4.961  0.1814 -0.4351  0.1706
  161SAPE  H17R17987   6.161   2.967   5.051 -2.9395 -0.7472 -1.5006
  161SAPE  H17S17988   6.185   3.119   4.968 -0.2477 -0.6132  1.7905
  161SAPE  C21817989   6.370   2.984   4.976  0.4396  0.2018  0.0080
  161SAPE  H18R17990   6.420   3.028   4.887 -0.7675  0.2107 -0.6848
  161SAPE  H18S17991   6.392   2.875   4.975 -1.4252 -0.1951 -0.4310
  161SAPE  C21917992   6.431   3.036   5.112 -0.2705  0.5002  0.7387
  161SAPE  H19R17993   6.529   2.984   5.121  0.2089  1.4642  1.2037
  161SAPE  H19S17994   6.370   2.994   5.195 -0.6912  0.2931  0.3297
  161SAPE  C22017995   6.446   3.187   5.119 -0.6245 -0.5042 -0.4380
  161SAPE  H20R17996   6.509   3.227   5.036 -2.5085 -0.4159 -1.8999
  161SAPE  H20S17997   6.499   3.216   5.212  1.8180  0.4912 -2.0154
  161SAPE  H20T17998   6.353   3.246   5.104 -0.4761 -0.6396 -2.1021
  161SAPE   C3317999   6.308   3.162   3.559  0.4968 -0.4127  0.0131
  161SAPE   H3X18000   6.214   3.103   3.552 -0.1053  0.4022  1.0053
  161SAPE   H3Y18001   6.278   3.267   3.538  0.3820 -0.5819 -0.7198
  161SAPE   C3418002   6.364   3.168   3.704  0.1491 -0.7681  0.2295
  161SAPE   H4X18003   6.440   3.245   3.728 -0.0503  0.0486 -1.6024
  161SAPE   H4Y18004   6.411   3.070   3.724 -0.8657 -0.7465  3.1489
  161SAPE   C3518005   6.247   3.200   3.800 -0.0893 -0.0407  0.2346
  161SAPE   H5X18006   6.164   3.127   3.804  0.3400 -0.4946  1.1388
  161SAPE   H5Y18007   6.211   3.302   3.777 -1.1228 -0.1389  1.3475
  161SAPE   C3618008   6.301   3.191   3.950 -0.0665 -0.2765 -0.1364
  161SAPE   H6X18009   6.398   3.243   3.962 -1.2089  2.0518 -0.5308
  161SAPE   H6Y18010   6.309   3.082   3.972  0.2057  0.3241  3.3361
  161SAPE   C3718011   6.205   3.261   4.042  0.2643 -0.3254 -0.3787
  161SAPE   H7X18012   6.102   3.237   4.009  1.0450 -2.9062 -1.1265
  161SAPE   H7Y18013   6.211   3.372   4.038  2.5194 -0.4333 -1.8506
  161SAPE   C3818014   6.205   3.201   4.183  0.2829 -0.5257  0.5128
  161SAPE   H8X18015   6.218   3.092   4.204  1.0712 -0.5090  0.1447
  161SAPE   H8Y18016   6.102   3.217   4.222 -0.7503 -1.3390 -1.7211
  161SAPE   C3918017   6.298   3.296   4.271  0.3602  0.5596  0.4932
  161SAPE   H9X18018   6.280   3.401   4.240 -0.1177  0.2762 -0.2097
  161SAPE   H9Y18019   6.403   3.270   4.246  0.6840  1.9058  0.3516
  161SAPE  C31018020   6.279   3.281   4.422  0.7752  0.5447 -0.0805
  161SAPE  H10X18021   6.293   3.178   4.461  0.0031  0.3212 -0.3812
  161SAPE  H10Y18022   6.178   3.314   4.456  0.8348 -1.1990  1.9668
  161SAPE  C31118023   6.376   3.374   4.496  0.4639 -0.1813 -0.0594
  161SAPE  H11X18024   6.372   3.476   4.452  1.1791 -0.7673 -1.5377
  161SAPE  H11Y18025   6.481   3.344   4.478  0.5917  0.5720 -0.6172
  161SAPE  C31218026   6.352   3.386   4.647  0.0086 -0.5054 -0.1136
  161SAPE  H12X18027   6.364   3.285   4.692  1.7927 -1.1152 -1.7871
  161SAPE  H12Y18028   6.250   3.423   4.671  0.5749 -0.1623  2.0092
  161SAPE  C31318029   6.452   3.480   4.720  0.6829 -0.1959 -0.0104
  161SAPE  H13X18030   6.390   3.518   4.805  0.9345  0.6342 -0.1831
  161SAPE  H13Y18031   6.469   3.568   4.654  0.4392 -1.7004 -2.1822
  161SAPE  C31418032   6.580   3.415   4.766 -0.1233  0.2414 -0.5358
  161SAPE  H14X18033   6.625   3.372   4.673 -0.2649  2.4100 -1.6630
  161SAPE  H14Y18034   6.551   3.321   4.819  0.5766 -1.1048 -2.4035
  161SAPE  C31518035   6.675   3.517   4.832 -0.1500 -0.0645 -0.6525
  161SAPE  H15X18036   6.660   3.618   4.790  0.3877  1.3192  2.2615
  161SAPE  H15Y18037   6.781   3.489   4.811  0.5481  1.3472  0.8023
  161SAPE  C31618038   6.644   3.506   4.983  0.8065 -0.3525 -0.1414
  161SAPE  H16X18039   6.665   3.403   5.020 -1.8439 -0.2817  1.8337
  161SAPE  H16Y18040   6.538   3.531   5.004  0.0433 -2.2269 -1.3716
  161SAPE  C31718041   6.739   3.588   5.078 -0.0194  0.0002 -0.1674
  161SAPE  H17X18042   6.733   3.550   5.182  1.6316 -1.9243 -0.7150
  161SAPE  H17Y18043   6.714   3.696   5.072  0.1678  0.0990  0.7341
  161SAPE  C31818044   6.888   3.566   5.056 -0.0186  0.1167  0.4676
  161SAPE  H18X18045   6.922   3.461   5.063 -0.4068 -0.0495 -0.0564
  161SAPE  H18Y18046   6.941   3.635   5.125  0.9634 -0.4107  0.2616
  161SAPE  H18Z18047   6.921   3.606   4.957  1.9434 -1.2448  0.5092
  162SAPE     N18048   5.478   3.176   3.109 -0.2316  0.4930 -0.9064
  162SAPE   HN118049   5.401   3.245   3.114  1.4500  2.3658  2.0129
  162SAPE   HN218050   5.566   3.226   3.084 -0.0891  0.7426  0.0559
  162SAPE   HN318051   5.462   3.101   3.038 -1.2629  0.9306 -1.1560
  162SAPE   C1218052   5.504   3.110   3.242  0.0615 -0.1608 -0.5348
  162SAPE  H12A18053   5.540   3.190   3.311 -0.8541 -0.9693  0.9348
  162SAPE  H12B18054   5.586   3.036   3.234 -0.6360 -1.2594  1.7443
  162SAPE   C1118055   5.389   3.036   3.300  0.2019  0.0971 -0.0747
  162SAPE  H11A18056   5.304   3.104   3.323  1.3870  1.3357  0.8226
  162SAPE  H11B18057   5.419   2.987   3.395 -0.6522  0.0595  0.1798
  162SAPE     P18058   5.380   2.794   3.205  0.0836 -0.1044  0.2800
  162SAPE   O1318059   5.281   2.725   3.117 -0.1908  0.0292 -0.2853
  162SAPE   O1418060   5.529   2.785   3.183 -0.1545  1.0868  0.3851
  162SAPE   O1218061   5.336   2.946   3.202 -0.1289  0.0990 -0.0030
  162SAPE   O1118062   5.357   2.760   3.352  0.4951 -0.2259  0.3227
  162SAPE    C118063   5.225   2.734   3.396  0.1540 -0.1870 -0.4254
  162SAPE    HA18064   5.156   2.799   3.339  3.1454  3.6165 -0.1004
  162SAPE    HB18065   5.196   2.626   3.398 -0.1045 -0.1076  0.8502
  162SAPE    C218066   5.198   2.782   3.546  0.2274  0.5858  0.3150
  162SAPE    HS18067   5.118   2.716   3.584  0.1968  1.2525  1.4583
  162SAPE   O2118068   5.169   2.916   3.539 -0.6630  0.9890 -0.1631
  162SAPE   C2118069   5.074   2.951   3.625  0.6784  0.1377 -0.0808
  162SAPE   O2218070   5.008   2.873   3.697 -0.3943 -0.0263  0.2270
  162SAPE   C2218071   5.060   3.102   3.617 -0.0812 -0.1606  0.1071
  162SAPE   H2R18072   5.160   3.143   3.591 -1.6272  2.8603 -1.7078
  162SAPE   H2S18073   4.985   3.121   3.537 -0.7562 -2.4904  0.1381
  162SAPE    C318074   5.329   2.750   3.620 -0.7313 -0.0449 -0.1847
  162SAPE    HX18075   5.409   2.805   3.567  0.2710 -0.7372  0.5752
  162SAPE    HY18076   5.350   2.642   3.615  0.0518  0.1387 -4.7752
  162SAPE   O3118077   5.320   2.778   3.762 -0.0556  0.6748 -0.4583
  162SAPE   C3118078   5.341   2.899   3.795  0.1164  0.0186  0.0871
  162SAPE   O3218079   5.366   2.990   3.720 -0.8242  0.0656 -0.0256
  162SAPE   C3218080   5.331   2.909   3.946 -0.6229  0.0726 -0.1914
  162SAPE   H2X18081   5.227   2.906   3.983 -0.5581 -1.2282 -0.1006
  162SAPE   H2Y18082   5.373   3.010   3.967 -1.3131 -0.1273  2.5032
  162SAPE   C2318083   5.009   3.175   3.741  0.1764 -0.6894 -0.0412
  162SAPE   H3R18084   4.936   3.113   3.796 -0.2205  0.2062  0.4766
  162SAPE   H3S18085   4.964   3.273   3.712  3.7644  1.7038  1.7325
  162SAPE   C2418086   5.114   3.224   3.842 -0.8219 -0.2696 -0.5984
  162SAPE   H4R18087   5.161   3.320   3.812  1.6133 -0.5982  1.7443
  162SAPE   H4S18088   5.191   3.143   3.839 -0.2988  0.1754  0.2524
  162SAPE   C2518089   5.064   3.235   3.984 -0.2089  0.4270 -0.9144
  162SAPE   H5R18090   4.960   3.200   3.993 -0.7468  1.9931 -0.7789
  162SAPE   C2618091   5.148   3.268   4.093  0.1593 -0.0607  0.8235
  162SAPE   H6R18092   5.107   3.285   4.193 -1.6948  2.4748 -0.2686
  162SAPE   C2718093   5.290   3.318   4.079 -0.5106 -0.0418 -0.2851
  162SAPE   H7R18094   5.298   3.427   4.099  0.1203  0.0009 -0.7511
  162SAPE   H7S18095   5.309   3.314   3.970 -1.1706 -0.8998 -0.3809
  162SAPE   C2818096   5.399   3.235   4.142 -0.0760 -0.3127 -0.4256
  162SAPE   H8R18097   5.470   3.186   4.074  2.0371 -0.4398  1.7652
  162SAPE   C2918098   5.429   3.241   4.275  0.4031  0.5620  0.2632
  162SAPE   H9R18099   5.503   3.174   4.322  0.8011  2.0937  1.9610
  162SAPE  C21018100   5.343   3.318   4.377 -0.7642  0.1890  0.4656
  162SAPE  H10R18101   5.239   3.287   4.355 -1.0144  0.4476  1.2528
  162SAPE  H10S18102   5.353   3.426   4.351  0.4560  0.2790  1.2163
  162SAPE  C21118103   5.376   3.289   4.521 -0.4637 -0.1608  0.2532
  162SAPE  H11R18104   5.367   3.181   4.539  2.8601 -1.4669 -4.2050
  162SAPE  C21218105   5.398   3.375   4.619 -0.1819  0.8108 -0.2183
  162SAPE  H12R18106   5.426   3.328   4.715 -1.9169  1.1503  0.4879
  162SAPE  C21318107   5.407   3.527   4.608 -0.3052  0.4845  0.4655
  162SAPE  H13R18108   5.304   3.568   4.618 -0.1063  1.4586 -1.1366
  162SAPE  H13S18109   5.449   3.554   4.509  2.2469 -1.9362  0.7641
  162SAPE  C21418110   5.484   3.598   4.716  1.1223 -0.2589  0.6614
  162SAPE  H14R18111   5.568   3.656   4.676  2.5613 -2.1012  0.9035
  162SAPE  C21518112   5.462   3.614   4.846 -0.0655  0.3694  0.7507
  162SAPE  H15R18113   5.530   3.687   4.892 -0.4410  1.9404 -1.0637
  162SAPE  C21618114   5.339   3.554   4.914  0.2719 -0.4147  0.4536
  162SAPE  H16R18115   5.360   3.459   4.969 -1.8602 -1.7904 -0.9512
  162SAPE  H16S18116   5.256   3.528   4.846  0.1394  0.7471  0.1586
  162SAPE  C21718117   5.267   3.643   5.027 -0.0525 -0.7190 -0.1904
  162SAPE  H17R18118   5.168   3.596   5.044 -1.5627  2.5351  0.7871
  162SAPE  H17S18119   5.257   3.748   4.993  2.2582  0.0582  1.3091
  162SAPE  C21818120   5.350   3.648   5.158  0.3878  0.2706 -0.0384
  162SAPE  H18R18121   5.442   3.709   5.143  0.2678  0.5374  0.3072
  162SAPE  H18S18122   5.385   3.543   5.170  2.8545  0.9091 -1.0441
  162SAPE  C21918123   5.279   3.710   5.274 -0.7458  0.3532 -1.1916
  162SAPE  H19R18124   5.261   3.817   5.253  2.0281  0.8949 -1.1463
  162SAPE  H19S18125   5.351   3.725   5.357  0.1018 -0.9408 -1.6644
  162SAPE  C22018126   5.154   3.640   5.325  0.0890 -0.4269  0.1683
  162SAPE  H20R18127   5.175   3.536   5.358 -2.0490 -0.7112  0.8260
  162SAPE  H20S18128   5.073   3.641   5.249 -1.5274  0.6282  1.7930
  162SAPE  H20T18129   5.117   3.696   5.414 -3.2212 -1.1359 -0.6283
  162SAPE   C3318130   5.402   2.799   4.019  0.7729 -0.0693  0.3275
  162SAPE   H3X18131   5.508   2.780   3.990 -0.0678 -2.0785 -1.7163
  162SAPE   H3Y18132   5.344   2.707   4.000  0.8480  0.3245 -2.1284
  162SAPE   C3418133   5.402   2.823   4.165  0.0441 -0.2210 -0.0144
  162SAPE   H4X18134   5.302   2.852   4.202 -1.3197 -2.2618 -1.9095
  162SAPE   H4Y18135   5.474   2.905   4.188 -0.0868 -0.6773  2.2732
  162SAPE   C3518136   5.450   2.700   4.246  0.3634  0.2338 -0.0008
  162SAPE   H5X18137   5.560   2.708   4.228  0.0880  1.9926 -1.1823
  162SAPE   H5Y18138   5.396   2.612   4.207 -1.3946  0.2635  2.1722
  162SAPE   C3618139   5.423   2.716   4.401  0.2271 -0.0269 -0.1261
  162SAPE   H6X18140   5.446   2.622   4.456  3.2912  2.4287  3.3380
  162SAPE   H6Y18141   5.314   2.734   4.406  0.4498  1.0346  2.2168
  162SAPE   C3718142   5.484   2.841   4.468  0.3101  0.0874  0.3057
  162SAPE   H7X18143   5.459   2.939   4.422  1.3172  0.3622  0.3276
  162SAPE   H7Y18144   5.594   2.828   4.461  0.0582 -2.5283  0.1088
  162SAPE   C3818145   5.438   2.852   4.619 -0.4738  0.5781  0.5067
  162SAPE   H8X18146   5.451   2.752   4.664  1.3474  1.2172  1.4752
  162SAPE   H8Y18147   5.331   2.879   4.633 -0.6752  1.2398 -1.8049
  162SAPE   C3918148   5.533   2.950   4.696  0.1430  0.1542  0.0750
  162SAPE   H9X18149   5.545   3.035   4.626  1.6450 -1.0001 -1.1403
  162SAPE   H9Y18150   5.631   2.900   4.711 -1.2488 -2.5305  1.0433
  162SAPE  C31018151   5.469   2.999   4.821  0.4583  0.9276 -0.4391
  162SAPE  H10X18152   5.425   2.911   4.873  1.1646  0.7262 -0.1739
  162SAPE  H10Y18153   5.373   3.049   4.798 -0.3639 -0.3408  0.1146
  162SAPE  C31118154   5.554   3.078   4.918 -0.6124  0.0964  0.3200
  162SAPE  H11X18155   5.622   3.002   4.962 -1.6836 -2.6719 -2.4783
  162SAPE  H11Y18156   5.498   3.110   5.008  1.4209  0.5877  1.4818
  162SAPE  C31218157   5.642   3.181   4.846 -0.1823 -0.1415  0.8740
  162SAPE  H12X18158   5.593   3.215   4.753 -1.4088  0.2528  1.6350
  162SAPE  H12Y18159   5.738   3.125   4.833 -0.0335 -0.3072  2.4399
  162SAPE  C31318160   5.687   3.309   4.934  0.6345  0.6377  0.8095
  162SAPE  H13X18161   5.609   3.388   4.943 -0.1381  0.0884 -0.7556
  162SAPE  H13Y18162   5.771   3.352   4.876  0.4486 -1.1349 -0.8625
  162SAPE  C31418163   5.722   3.272   5.076 -0.0621  0.5550 -0.2554
  162SAPE  H14X18164   5.783   3.180   5.081 -0.4700  0.2378 -0.9378
  162SAPE  H14Y18165   5.631   3.256   5.138  0.4914  0.0754  0.4346
  162SAPE  C31518166   5.791   3.386   5.159 -0.1456  0.0600  0.0123
  162SAPE  H15X18167   5.743   3.486   5.157  1.7473  0.9971 -1.5591
  162SAPE  H15Y18168   5.890   3.398   5.110 -0.1058  0.6025  0.2290
  162SAPE  C31618169   5.839   3.346   5.299 -0.4681 -0.5819  0.3863
  162SAPE  H16X18170   5.744   3.332   5.354 -1.2077 -5.1998 -1.5883
  162SAPE  H16Y18171   5.893   3.440   5.324 -0.4646  0.1951 -2.2111
  162SAPE  C31718172   5.918   3.219   5.326  0.1655 -0.4544  0.6728
  162SAPE  H17X18173   5.884   3.133   5.265 -1.2631  0.9617 -0.6405
  162SAPE  H17Y18174   5.907   3.203   5.436  0.2868  1.9293  1.0821
  162SAPE  C31818175   6.067   3.234   5.284 -0.2381 -0.1730 -0.0970
  162SAPE  H18X18176   6.123   3.302   5.352  3.0159 -1.1006 -1.6070
  162SAPE  H18Y18177   6.067   3.273   5.180 -0.0208  0.3369  0.0898
  162SAPE  H18Z18178   6.116   3.135   5.297  1.9457  0.8638  0.1199
  163SAPE     N18179   4.592   3.649   2.956  0.0424 -0.8985 -0.1525
  163SAPE   HN118180   4.625   3.661   2.858 -0.3293 -0.6969 -0.2551
  163SAPE   HN218181   4.497   3.614   2.936  0.2675  0.4234 -4.4400
  163SAPE   HN318182   4.585   3.745   2.996 -1.1223 -1.0971  0.1379
  163SAPE   C1218183   4.685   3.565   3.041  0.5418  1.4747  0.2138
  163SAPE  H12A18184   4.770   3.627   3.077  2.5151 -0.5184 -0.7681
  163SAPE  H12B18185   4.725   3.482   2.978  0.7028  2.3379 -0.8453
  163SAPE   C1118186   4.608   3.501   3.157 -0.2832 -0.0693 -0.5550
  163SAPE  H11A18187   4.671   3.433   3.219 -2.5425 -0.5280  1.3648
  163SAPE  H11B18188   4.542   3.424   3.113 -0.6394 -1.1813  1.7799
  163SAPE     P18189   4.513   3.585   3.387  0.0446 -0.2422  0.1114
  163SAPE   O1318190   4.434   3.700   3.434  0.0420 -0.3136 -0.4024
  163SAPE   O1418191   4.467   3.455   3.434  0.1962  0.1051 -0.4183
  163SAPE   O1218192   4.524   3.595   3.225 -0.9009  0.6092  0.0971
  163SAPE   O1118193   4.658   3.612   3.437  0.4220  0.1918  0.0414
  163SAPE    C118194   4.742   3.713   3.381  0.2210  0.3421  0.1359
  163SAPE    HA18195   4.819   3.658   3.322 -1.2147 -0.4075 -1.1197
  163SAPE    HB18196   4.686   3.783   3.316 -0.2792  0.9175  1.1501
  163SAPE    C218197   4.804   3.805   3.479 -0.3107  0.8762 -0.2313
  163SAPE    HS18198   4.881   3.864   3.425  0.8847  1.7056  2.2379
  163SAPE   O2118199   4.866   3.727   3.584 -0.0710  0.0938 -0.0543
  163SAPE   C2118200   4.985   3.677   3.556 -0.2255 -0.1169  0.0126
  163SAPE   O2218201   5.053   3.711   3.464 -0.2257 -0.2680  0.8677
  163SAPE   C2218202   5.029   3.574   3.659 -0.2723  0.7378 -0.4166
  163SAPE   H2R18203   4.949   3.496   3.666 -1.1726  1.6662 -0.1241
  163SAPE   H2S18204   5.123   3.530   3.620 -0.6333  1.4451 -2.1463
  163SAPE    C318205   4.707   3.901   3.546 -0.0242 -0.0091  0.4557
  163SAPE    HX18206   4.621   3.839   3.582  2.5817 -3.0030  2.1196
  163SAPE    HY18207   4.672   3.973   3.469  3.8984  0.8826 -0.6899
  163SAPE   O3118208   4.757   3.981   3.654 -0.1063 -0.0407  0.0972
  163SAPE   C3118209   4.673   4.036   3.744 -0.4413  0.8465 -0.5398
  163SAPE   O3218210   4.555   4.016   3.750 -0.4448 -0.2799 -0.2549
  163SAPE   C3218211   4.748   4.122   3.845  0.7824 -0.0737  0.5208
  163SAPE   H2X18212   4.676   4.145   3.926  0.0350  0.5162 -0.2840
  163SAPE   H2Y18213   4.755   4.221   3.793  1.5220 -0.3432  0.0957
  163SAPE   C2318214   5.042   3.644   3.793 -0.3166  0.2638 -0.4977
  163SAPE   H3R18215   5.050   3.573   3.878 -2.8089 -0.4263 -0.7833
  163SAPE   H3S18216   4.950   3.694   3.829 -0.0802  0.4109 -0.0841
  163SAPE   C2418217   5.164   3.735   3.794  0.5281 -0.2850  0.2575
  163SAPE   H4R18218   5.137   3.798   3.882  1.2193  0.0214  0.2515
  163SAPE   H4S18219   5.155   3.803   3.707 -1.1328  0.9815  1.3616
  163SAPE   C2518220   5.295   3.663   3.796 -0.4844 -0.4460  0.1228
  163SAPE   H5R18221   5.323   3.623   3.697 -0.0863 -1.7669  0.7547
  163SAPE   C2618222   5.368   3.647   3.905 -0.3132  0.4539 -0.2581
  163SAPE   H6R18223   5.461   3.590   3.889 -1.0270 -0.6937 -0.4318
  163SAPE   C2718224   5.347   3.700   4.045 -0.3631  0.3927  0.0551
  163SAPE   H7R18225   5.259   3.640   4.076 -2.6338  1.1070 -4.2288
  163SAPE   H7S18226   5.323   3.808   4.038  0.7640  0.5844 -1.1194
  163SAPE   C2818227   5.455   3.667   4.146 -0.1265  0.2695  0.6073
  163SAPE   H8R18228   5.530   3.600   4.100 -1.3222  1.5929 -3.8129
  163SAPE   C2918229   5.464   3.711   4.269  0.8682 -1.0264 -0.2164
  163SAPE   H9R18230   5.540   3.665   4.333 -0.4406 -0.7906  1.5760
  163SAPE  C21018231   5.363   3.798   4.346  0.4999  0.1354 -0.3128
  163SAPE  H10R18232   5.326   3.750   4.439 -3.9060  0.9601 -1.3868
  163SAPE  H10S18233   5.279   3.808   4.274  0.2054 -3.1165 -0.5791
  163SAPE  C21118234   5.421   3.937   4.370  0.2920  0.3303  0.5877
  163SAPE  H11R18235   5.474   3.975   4.281  2.8700  0.1593  1.9542
  163SAPE  C21218236   5.402   4.010   4.483 -1.1500 -0.8837  0.4436
  163SAPE  H12R18237   5.444   4.112   4.476  3.2157 -2.5251 -0.0406
  163SAPE  C21318238   5.332   3.968   4.608  0.0879 -0.0354 -0.0123
  163SAPE  H13R18239   5.405   3.947   4.689 -0.2988  0.8446  0.5832
  163SAPE  H13S18240   5.257   3.887   4.602 -0.1960  0.3156 -2.2147
  163SAPE  C21418241   5.245   4.098   4.636 -0.1946  0.1834 -0.0052
  163SAPE  H14R18242   5.210   4.139   4.540  0.2420  0.7646  0.0752
  163SAPE  C21518243   5.201   4.139   4.750 -0.6425  0.4719 -0.2739
  163SAPE  H15R18244   5.134   4.226   4.756 -0.8371  0.3464 -0.6496
  163SAPE  C21618245   5.232   4.072   4.882 -0.1893 -0.1145  0.4275
  163SAPE  H16R18246   5.338   4.043   4.894  0.0068  0.9443  1.3932
  163SAPE  H16S18247   5.175   3.980   4.906 -2.3836  1.1018  0.2380
  163SAPE  C21718248   5.202   4.171   4.993  0.1041 -0.3379 -0.6012
  163SAPE  H17R18249   5.099   4.209   4.981 -0.3025 -0.0123  2.9375
  163SAPE  H17S18250   5.270   4.259   4.989 -1.4262  0.9700  0.9052
  163SAPE  C21818251   5.223   4.107   5.139  0.5988  0.8215  1.0386
  163SAPE  H18R18252   5.305   4.033   5.137 -0.5516 -0.4843 -0.2552
  163SAPE  H18S18253   5.133   4.050   5.170  0.5224  0.7746  0.7352
  163SAPE  C21918254   5.258   4.212   5.249 -0.2879 -0.0145 -0.2153
  163SAPE  H19R18255   5.165   4.271   5.259 -0.2544  0.4393 -2.1876
  163SAPE  H19S18256   5.340   4.279   5.215  0.6042 -1.0310 -0.1021
  163SAPE  C22018257   5.296   4.136   5.382  0.1867 -0.2871 -0.7882
  163SAPE  H20R18258   5.211   4.081   5.428 -0.4973  0.6839 -0.8419
  163SAPE  H20S18259   5.332   4.211   5.455 -2.0260 -0.1214  0.2250
  163SAPE  H20T18260   5.376   4.065   5.353  1.1746  1.6334 -3.1267
  163SAPE   C3318261   4.883   4.063   3.901 -0.4173 -0.9466 -0.1811
  163SAPE   H3X18262   4.951   4.070   3.814  1.9526  0.7350  1.6752
  163SAPE   H3Y18263   4.860   3.959   3.931  2.5485 -1.7691 -0.4500
  163SAPE   C3418264   4.926   4.134   4.026 -0.1389  0.1227  0.3921
  163SAPE   H4X18265   4.953   4.239   4.002  0.8980 -0.3151 -0.4006
  163SAPE   H4Y18266   5.014   4.083   4.070  0.3219  0.3965 -0.1964
  163SAPE   C3518267   4.822   4.149   4.140 -0.3890  0.3767 -0.5669
  163SAPE   H5X18268   4.792   4.048   4.176  0.8196 -0.5800 -2.1329
  163SAPE   H5Y18269   4.735   4.208   4.105 -0.8449  0.5473  0.7996
  163SAPE   C3618270   4.886   4.223   4.253 -0.0819 -0.6888 -0.1102
  163SAPE   H6X18271   4.888   4.331   4.226 -0.4984 -0.2670  1.4411
  163SAPE   H6Y18272   4.993   4.196   4.261 -0.0854 -0.4341  0.9684
  163SAPE   C3718273   4.821   4.211   4.396 -0.2781  0.5727 -0.1456
  163SAPE   H7X18274   4.834   4.101   4.410 -2.1321 -0.1192 -2.9886
  163SAPE   H7Y18275   4.710   4.215   4.407 -0.2600  1.9724 -0.3518
  163SAPE   C3818276   4.874   4.293   4.512 -0.3869  0.2874  0.4530
  163SAPE   H8X18277   4.853   4.401   4.494  0.7960  0.2323 -1.4615
  163SAPE   H8Y18278   4.985   4.288   4.508 -0.3463  1.5938 -0.5545
  163SAPE   C3918279   4.812   4.262   4.648  0.2383  0.6331  0.2813
  163SAPE   H9X18280   4.832   4.155   4.672 -1.8311  0.0518 -0.3687
  163SAPE   H9Y18281   4.701   4.264   4.640  0.2549  1.1592  0.1723
  163SAPE  C31018282   4.856   4.355   4.755  0.7023  0.2930 -0.0754
  163SAPE  H10X18283   4.810   4.455   4.739 -0.4558 -0.2343 -0.1502
  163SAPE  H10Y18284   4.966   4.367   4.743  0.7418 -0.4520 -0.5029
  163SAPE  C31118285   4.818   4.316   4.897 -0.5649 -0.4131  0.4854
  163SAPE  H11X18286   4.854   4.212   4.911  0.2768 -0.1610  0.2412
  163SAPE  H11Y18287   4.708   4.326   4.912 -0.4981  2.2031 -0.3490
  163SAPE  C31218288   4.877   4.411   5.002 -0.5197 -0.4090 -0.1335
  163SAPE  H12X18289   4.840   4.511   4.969 -0.4185 -0.7807 -1.4483
  163SAPE  H12Y18290   4.987   4.421   4.996 -0.5343 -0.7292 -4.1051
  163SAPE  C31318291   4.814   4.390   5.141  0.0278 -0.2924 -0.6522
  163SAPE  H13X18292   4.708   4.422   5.143  0.4102  1.0833 -0.8641
  163SAPE  H13Y18293   4.859   4.458   5.217  0.4079 -0.3437 -0.8283
  163SAPE  C31418294   4.829   4.244   5.186 -0.5099  0.0168 -0.6271
  163SAPE  H14X18295   4.933   4.209   5.204 -0.7472 -0.8047 -0.8239
  163SAPE  H14Y18296   4.771   4.185   5.112 -1.2302 -0.9257  0.6662
  163SAPE  C31518297   4.764   4.220   5.330 -0.7049  0.0981  0.2318
  163SAPE  H15X18298   4.668   4.277   5.334 -1.3914 -1.0482  0.6179
  163SAPE  H15Y18299   4.841   4.260   5.401 -0.3204  0.0893 -0.1792
  163SAPE  C31618300   4.730   4.068   5.362 -0.2989 -0.7977  0.8931
  163SAPE  H16X18301   4.827   4.020   5.389 -0.2782 -2.3461 -1.5667
  163SAPE  H16Y18302   4.697   4.012   5.272 -0.1352  0.0280  0.3002
  163SAPE  C31718303   4.642   4.044   5.484  0.5166 -0.1679  0.1249
  163SAPE  H17X18304   4.695   4.074   5.576  0.0700  0.5987  0.1471
  163SAPE  H17Y18305   4.625   3.936   5.502  1.5372 -0.0825  1.7278
  163SAPE  C31818306   4.512   4.121   5.477  0.5218 -0.2207  0.5612
  163SAPE  H18X18307   4.537   4.229   5.468  0.6925 -0.3409 -0.6249
  163SAPE  H18Y18308   4.445   4.101   5.563 -2.4565 -2.5840 -2.0677
  163SAPE  H18Z18309   4.451   4.088   5.390 -0.5769 -1.9020  1.8896
  164SAPE     N18310   2.520   1.824   3.280 -0.0623  0.2113 -0.2586
  164SAPE   HN118311   2.578   1.885   3.341  3.7836 -2.4707 -0.8576
  164SAPE   HN218312   2.450   1.887   3.236  0.6341  1.4954  0.4182
  164SAPE   HN318313   2.473   1.754   3.341  0.8393 -0.2884 -0.1334
  164SAPE   C1218314   2.598   1.761   3.166 -0.0071  0.1693 -0.2943
  164SAPE  H12A18315   2.533   1.699   3.101  2.6232 -1.1486 -1.8099
  164SAPE  H12B18316   2.673   1.689   3.206 -0.6369 -1.0374 -1.2161
  164SAPE   C1118317   2.660   1.880   3.083 -0.8364 -0.2475  0.0964
  164SAPE  H11A18318   2.574   1.946   3.057 -0.5960 -0.7753 -2.2585
  164SAPE  H11B18319   2.699   1.839   2.988  2.9907  0.8836  0.9884
  164SAPE     P18320   2.899   1.996   3.086  0.1080  0.1995  0.3889
  164SAPE   O1318321   2.871   1.987   2.942  0.1965 -0.2236  0.9255
  164SAPE   O1418322   2.946   2.125   3.144 -0.4676 -0.0400  0.5354
  164SAPE   O1218323   2.757   1.964   3.154  0.5018 -0.0646 -0.0765
  164SAPE   O1118324   2.990   1.876   3.132  0.3817 -0.4087 -0.2036
  164SAPE    C118325   2.967   1.790   3.239  0.3249  0.5076 -0.0939
  164SAPE    HA18326   2.863   1.769   3.272  0.7525 -0.2238  0.8119
  164SAPE    HB18327   3.003   1.689   3.211 -0.8357 -0.4573  1.7258
  164SAPE    C218328   3.060   1.839   3.356 -0.3315 -0.5198  0.5888
  164SAPE    HS18329   3.038   1.758   3.429 -0.9148 -0.0592  0.9372
  164SAPE   O2118330   3.025   1.967   3.422 -0.2537 -0.0609  0.0372
  164SAPE   C2118331   2.909   1.966   3.479  0.4705  0.0192 -0.4253
  164SAPE   O2218332   2.834   1.875   3.490  0.1417  0.8416 -0.7026
  164SAPE   C2218333   2.896   2.100   3.553  0.2415 -0.3028 -0.2257
  164SAPE   H2R18334   2.916   2.186   3.486  1.8618 -0.5514 -0.0974
  164SAPE   H2S18335   2.787   2.106   3.573  0.4533  2.3506  0.6176
  164SAPE    C318336   3.212   1.835   3.328  0.6724  0.1897 -0.4218
  164SAPE    HX18337   3.236   1.928   3.272  1.1759  0.3660  0.0765
  164SAPE    HY18338   3.232   1.742   3.270  0.3918 -0.3997  0.4099
  164SAPE   O3118339   3.283   1.826   3.454 -0.2044 -0.8001  0.2655
  164SAPE   C3118340   3.308   1.948   3.515 -0.5567  0.7656  0.0888
  164SAPE   O3218341   3.281   2.057   3.475 -0.0927 -0.7001  0.3236
  164SAPE   C3218342   3.364   1.928   3.656 -0.3534 -0.3594 -0.2145
  164SAPE   H2X18343   3.465   1.883   3.642 -0.0917 -0.0394  0.6023
  164SAPE   H2Y18344   3.293   1.851   3.693 -2.3829  1.0530 -0.9954
  164SAPE   C2318345   2.976   2.120   3.688  0.6269  0.3753  0.1375
  164SAPE   H3R18346   2.954   2.212   3.745  1.0343  0.3194  0.3916
  164SAPE   H3S18347   3.085   2.113   3.663  0.4010  0.1297 -0.8230
  164SAPE   C2418348   2.941   2.006   3.789 -0.4100 -0.4759 -0.0227
  164SAPE   H4R18349   2.898   1.915   3.742 -1.7645  0.5233 -0.8025
  164SAPE   H4S18350   2.848   2.047   3.834 -0.0680 -0.2548  0.4880
  164SAPE   C2518351   3.043   1.970   3.892  0.4170 -0.6256  0.5034
  164SAPE   H5R18352   3.147   1.971   3.859  0.6415  0.7677  1.1659
  164SAPE   C2618353   3.015   1.931   4.021 -0.3004  0.3096 -0.3992
  164SAPE   H6R18354   3.102   1.905   4.083 -0.4072  0.4472 -0.1924
  164SAPE   C2718355   2.881   1.921   4.090  0.2019 -0.3981  0.0796
  164SAPE   H7R18356   2.885   1.830   4.154 -0.3029  0.1653  0.9379
  164SAPE   H7S18357   2.808   1.908   4.007 -0.3598 -0.8140  0.6251
  164SAPE   C2818358   2.831   2.040   4.167 -0.0346 -0.7628 -0.1712
  164SAPE   H8R18359   2.759   2.095   4.105  1.0744 -1.1242 -1.8419
  164SAPE   C2918360   2.855   2.083   4.295 -1.0685  0.4083  0.2926
  164SAPE   H9R18361   2.807   2.173   4.335  1.2548  2.3065 -0.9148
  164SAPE  C21018362   2.933   2.019   4.402 -0.3532 -0.0610 -0.0978
  164SAPE  H10R18363   3.016   2.088   4.427  0.5436 -0.8010 -0.9153
  164SAPE  H10S18364   2.982   1.932   4.353 -0.9090 -1.2646  1.3887
  164SAPE  C21118365   2.845   1.963   4.518 -0.1823  0.2919  0.2936
  164SAPE  H11R18366   2.741   1.935   4.493  0.5792 -2.0965 -0.4237
  164SAPE  C21218367   2.886   1.950   4.646  0.0765  0.1984 -0.0051
  164SAPE  H12R18368   2.820   1.892   4.712 -0.9049  1.6906  0.3829
  164SAPE  C21318369   3.021   1.979   4.697  0.0598 -0.4944 -0.0302
  164SAPE  H13R18370   3.091   2.001   4.613 -0.7205 -0.6415 -0.7363
  164SAPE  H13S18371   3.055   1.885   4.744 -1.6495 -1.8296 -1.3131
  164SAPE  C21418372   3.025   2.101   4.797 -0.3568 -0.5613  0.0522
  164SAPE  H14R18373   3.064   2.187   4.741 -2.3389 -1.9621 -3.8596
  164SAPE  C21518374   2.962   2.111   4.915 -0.3420 -0.7986 -0.8445
  164SAPE  H15R18375   2.966   2.204   4.973  0.2049 -1.5682  0.3926
  164SAPE  C21618376   2.892   1.991   4.992 -0.3881 -1.4139  0.8608
  164SAPE  H16R18377   2.859   1.908   4.926 -2.1772  1.7727 -2.6776
  164SAPE  H16S18378   2.794   2.017   5.036 -1.3950 -1.9128 -0.9959
  164SAPE  C21718379   2.987   1.934   5.097 -0.2540  0.6127 -0.5122
  164SAPE  H17R18380   2.932   1.864   5.163  2.5251  0.7687  2.2226
  164SAPE  H17S18381   3.024   2.015   5.163 -0.2099  0.0781  0.1323
  164SAPE  C21818382   3.111   1.858   5.036  0.8289 -0.8189 -0.7885
  164SAPE  H18R18383   3.175   1.928   4.978  0.4344 -0.6939 -1.0809
  164SAPE  H18S18384   3.065   1.787   4.963 -0.7076 -0.0798 -0.5822
  164SAPE  C21918385   3.199   1.788   5.133 -0.5300  0.2093 -0.1400
  164SAPE  H19R18386   3.148   1.695   5.165 -0.0224 -1.0593 -2.7632
  164SAPE  H19S18387   3.223   1.850   5.222  2.8544 -0.5165 -0.3947
  164SAPE  C22018388   3.325   1.739   5.071 -0.7625 -0.1717 -0.3938
  164SAPE  H20R18389   3.389   1.830   5.059 -2.0568  1.3953  3.1327
  164SAPE  H20S18390   3.302   1.678   4.982 -2.8745 -0.5727  0.3709
  164SAPE  H20T18391   3.369   1.668   5.144  0.7666  0.9727 -0.1333
  164SAPE   C3318392   3.384   2.052   3.755 -0.0687  0.0502 -0.3198
  164SAPE   H3X18393   3.290   2.112   3.758 -0.6132 -0.8211  2.5791
  164SAPE   H3Y18394   3.474   2.111   3.728 -1.8692  2.6295 -1.0804
  164SAPE   C3418395   3.419   2.015   3.904 -0.1199  0.3580 -0.7909
  164SAPE   H4X18396   3.373   1.915   3.922  0.5900  0.1903  0.2456
  164SAPE   H4Y18397   3.389   2.091   3.980  0.8497 -1.0521  1.0782
  164SAPE   C3518398   3.571   1.996   3.915  0.8777 -0.1445 -0.9738
  164SAPE   H5X18399   3.633   2.081   3.877  1.5535 -0.2895 -0.2265
  164SAPE   H5Y18400   3.616   1.908   3.863  2.0482  1.1021 -2.1709
  164SAPE   C3618401   3.619   1.978   4.065 -0.4025  0.3990  0.4612
  164SAPE   H6X18402   3.582   1.882   4.105  0.5241 -1.4069 -2.6584
  164SAPE   H6Y18403   3.594   2.066   4.128 -0.2192  1.2737 -0.6471
  164SAPE   C3718404   3.781   1.980   4.085  0.0405 -0.1219 -0.5206
  164SAPE   H7X18405   3.840   2.062   4.041  1.7650 -0.1751  1.5323
  164SAPE   H7Y18406   3.808   1.887   4.030  1.1480 -0.1017 -0.0266
  164SAPE   C3818407   3.827   1.955   4.230 -0.3454 -0.4789 -0.6274
  164SAPE   H8X18408   3.931   1.915   4.228  0.1007  0.6180 -0.0812
  164SAPE   H8Y18409   3.768   1.874   4.278  0.7285 -1.0351 -0.2050
  164SAPE   C3918410   3.820   2.072   4.325 -0.3740  0.1544  0.0701
  164SAPE   H9X18411   3.737   2.141   4.299  0.3603  0.9495 -0.2538
  164SAPE   H9Y18412   3.919   2.124   4.324 -0.6942  0.7686  0.0520
  164SAPE  C31018413   3.794   2.030   4.474 -0.8761 -0.1941  0.4712
  164SAPE  H10X18414   3.692   1.989   4.487 -1.1375  0.6153  1.0676
  164SAPE  H10Y18415   3.796   2.122   4.537 -3.6234  0.2208  0.0996
  164SAPE  C31118416   3.890   1.919   4.534  0.3288 -0.1369  0.2537
  164SAPE  H11X18417   3.997   1.937   4.510  0.0528  0.3788 -0.6216
  164SAPE  H11Y18418   3.851   1.821   4.498  1.4710 -0.9163  1.0880
  164SAPE  C31218419   3.900   1.909   4.687 -0.1680  0.8287  0.2045
  164SAPE  H12X18420   3.964   1.824   4.720 -0.8642  0.5220  0.7936
  164SAPE  H12Y18421   3.801   1.886   4.731 -1.2286  0.9894 -1.9740
  164SAPE  C31318422   3.953   2.040   4.747 -0.9447  0.8533 -0.0338
  164SAPE  H13X18423   3.897   2.129   4.710 -0.9957  0.0299 -2.0503
  164SAPE  H13Y18424   4.058   2.056   4.717 -0.4019  0.1770  1.4028
  164SAPE  C31418425   3.947   2.040   4.903 -0.3503  0.6713  0.5302
  164SAPE  H14X18426   3.859   1.978   4.930 -0.8356  0.3564 -1.5635
  164SAPE  H14Y18427   3.927   2.145   4.935  0.7116  1.1846 -0.4156
  164SAPE  C31518428   4.072   1.976   4.970  0.8256 -0.0168  0.1783
  164SAPE  H15X18429   4.157   2.045   4.952 -0.2965  1.4184  0.1222
  164SAPE  H15Y18430   4.098   1.878   4.925  1.1761 -0.7867  1.9971
  164SAPE  C31618431   4.056   1.964   5.123 -0.4289 -1.1951  0.6753
  164SAPE  H16X18432   3.986   1.880   5.140 -1.4186 -0.1734  1.9365
  164SAPE  H16Y18433   4.013   2.053   5.174  0.9900  0.9920 -1.6863
  164SAPE  C31718434   4.189   1.937   5.188  0.0405  0.5675 -0.3484
  164SAPE  H17X18435   4.257   2.018   5.154  1.4090 -1.8276 -3.7725
  164SAPE  H17Y18436   4.236   1.840   5.162 -0.1753  0.3594  0.0267
  164SAPE  C31818437   4.178   1.944   5.343  0.3406 -0.3910 -0.0198
  164SAPE  H18X18438   4.124   2.035   5.377 -1.2216  0.2257 -3.6584
  164SAPE  H18Y18439   4.283   1.962   5.374  0.4201  1.3127 -1.1487
  164SAPE  H18Z18440   4.126   1.853   5.380  0.9228 -1.4765 -1.7428
  165SAPE     N18441   0.137   2.737   2.772 -0.0988  0.7745  0.0122
  165SAPE   HN118442   0.106   2.799   2.849 -0.9411  0.6946 -0.2539
  165SAPE   HN218443   0.054   2.702   2.720  0.7235 -0.3972 -0.5444
  165SAPE   HN318444   0.185   2.651   2.807  0.0615  0.9437  0.2143
  165SAPE   C1218445   0.235   2.796   2.677 -0.5356 -1.2141  0.4337
  165SAPE  H12A18446   0.177   2.861   2.607  0.0054 -1.1226  0.0606
  165SAPE  H12B18447   0.281   2.714   2.618 -2.4564 -0.9851 -1.5239
  165SAPE   C1118448   0.340   2.875   2.756 -0.5894 -0.2851  0.4997
  165SAPE  H11A18449   0.421   2.920   2.694 -0.8185 -0.0781  0.3478
  165SAPE  H11B18450   0.394   2.800   2.817 -0.6875 -1.4817 -0.8416
  165SAPE     P18451   0.265   3.119   2.802  0.1675  0.3065 -0.1738
  165SAPE   O1318452   0.311   3.123   2.660  0.0328  0.4735  0.0234
  165SAPE   O1418453   0.125   3.157   2.834 -0.1639 -0.0773  0.3454
  165SAPE   O1218454   0.291   2.972   2.849 -0.4620  0.0431  0.0908
  165SAPE   O1118455   0.352   3.215   2.890  0.2057  0.0553 -0.5304
  165SAPE    C118456   0.465   3.173   2.959  0.3952 -0.4139  0.2820
  165SAPE    HA18457   0.520   3.090   2.911 -2.1957 -1.4106 -1.2063
  165SAPE    HB18458   0.534   3.260   2.967  1.2403 -1.0268 -0.2581
  165SAPE    C218459   0.429   3.124   3.105  0.8602 -0.0894  0.2524
  165SAPE    HS18460   0.361   3.037   3.097 -0.6352  0.8774  1.8679
  165SAPE   O2118461   0.350   3.217   3.178  0.2403  0.3151  0.9254
  165SAPE   C2118462   0.273   3.163   3.272 -0.0590  1.0976 -0.1496
  165SAPE   O2218463   0.274   3.045   3.308  0.9618 -0.4207 -0.1745
  165SAPE   C2218464   0.181   3.258   3.347  0.7085  0.0062 -0.1601
  165SAPE   H2R18465   0.174   3.217   3.450  0.0972  0.9891  0.1991
  165SAPE   H2S18466   0.218   3.362   3.356  0.7022 -0.1801  4.9799
  165SAPE    C318467   0.568   3.104   3.180  0.0717 -0.4801  0.0061
  165SAPE    HX18468   0.615   3.205   3.188 -0.2352 -0.2774 -0.6095
  165SAPE    HY18469   0.634   3.038   3.120 -1.4129 -1.8520 -0.1731
  165SAPE   O3118470   0.542   3.043   3.310  0.4963  0.1326 -0.2295
  165SAPE   C3118471   0.633   2.951   3.349  0.4613  0.3144 -0.2789
  165SAPE   O3218472   0.710   2.886   3.277 -0.4349 -0.5996 -0.0955
  165SAPE   C3218473   0.611   2.928   3.495 -0.5263 -0.1768 -0.0941
  165SAPE   H2X18474   0.584   2.821   3.507  2.3320 -0.7991  1.4742
  165SAPE   H2Y18475   0.522   2.987   3.525 -0.9272 -0.3745 -0.8648
  165SAPE   C2318476   0.045   3.257   3.267 -0.6931 -0.3359  0.1204
  165SAPE   H3R18477   0.021   3.150   3.250 -1.1003 -0.6112  2.0804
  165SAPE   H3S18478   0.059   3.304   3.168  0.4899 -1.2131 -0.1470
  165SAPE   C2418479  -0.073   3.312   3.345  0.1985  0.1948  0.2173
  165SAPE   H4R18480  -0.082   3.259   3.442 -0.4516  3.0398  1.8260
  165SAPE   H4S18481  -0.153   3.283   3.275  0.3355 -0.2668  0.2464
  165SAPE   C2518482  -0.063   3.463   3.369 -0.0014 -0.1011 -0.4404
  165SAPE   H5R18483  -0.015   3.515   3.284 -0.5411  0.5399 -0.3559
  165SAPE   C2618484  -0.082   3.528   3.487 -0.9524 -0.7895  0.3762
  165SAPE   H6R18485  -0.057   3.635   3.493 -0.7708 -0.8998  1.9652
  165SAPE   C2718486  -0.122   3.467   3.623  0.2098 -0.0545 -0.0497
  165SAPE   H7R18487  -0.178   3.376   3.594  0.2395  0.4875 -1.9748
  165SAPE   H7S18488  -0.193   3.530   3.681  0.3492  1.0094 -1.0141
  165SAPE   C2818489  -0.005   3.427   3.712 -0.0553  0.2538 -1.1886
  165SAPE   H8R18490   0.087   3.392   3.664 -0.7332  0.0265 -2.3557
  165SAPE   C2918491   0.000   3.457   3.850 -0.0326  0.1568  0.0619
  165SAPE   H9R18492   0.089   3.436   3.911 -0.6415  1.1772  1.3656
  165SAPE  C21018493  -0.121   3.500   3.924  0.2763 -0.2328 -0.3046
  165SAPE  H10R18494  -0.211   3.458   3.875 -0.2602 -1.8379  1.9002
  165SAPE  H10S18495  -0.130   3.610   3.921 -1.4814 -0.3533 -0.4865
  165SAPE  C21118496  -0.129   3.449   4.072  0.5941  1.3361  0.5993
  165SAPE  H11R18497  -0.188   3.359   4.093 -0.6168  2.4499  2.2266
  165SAPE  C21218498  -0.069   3.511   4.174 -0.5282  0.8294  0.5188
  165SAPE  H12R18499  -0.092   3.472   4.274 -2.1180  1.7742  0.5610
  165SAPE  C21318500   0.022   3.629   4.179 -0.4723 -0.3559  0.3743
  165SAPE  H13R18501   0.044   3.667   4.076 -1.5599  1.8589  0.8815
  165SAPE  H13S18502   0.119   3.598   4.222  0.7930  0.0094 -2.0333
  165SAPE  C21418503  -0.060   3.740   4.246 -0.2188 -0.1236 -0.1665
  165SAPE  H14R18504  -0.154   3.765   4.194 -0.3904  1.4670  0.8548
  165SAPE  C21518505  -0.024   3.802   4.361  0.1452 -0.2985 -0.9726
  165SAPE  H15R18506  -0.089   3.878   4.406  0.8517  0.0012 -0.4444
  165SAPE  C21618507   0.093   3.765   4.450  0.6052  0.6159  0.9208
  165SAPE  H16R18508   0.185   3.823   4.427  0.2121  0.2654 -1.8507
  165SAPE  H16S18509   0.125   3.659   4.444  0.0689  0.5262 -0.8701
  165SAPE  C21718510   0.052   3.787   4.594  0.3275 -0.3225 -0.1456
  165SAPE  H17R18511  -0.041   3.727   4.605  0.1653 -0.0878 -0.2194
  165SAPE  H17S18512   0.024   3.893   4.611  3.0329  0.7302 -1.6434
  165SAPE  C21818513   0.158   3.744   4.693  0.9529  0.6559  0.4063
  165SAPE  H18R18514   0.170   3.634   4.678 -1.5498  0.5100 -1.1545
  165SAPE  H18S18515   0.106   3.757   4.790 -1.0926 -0.3957 -0.4866
  165SAPE  C21918516   0.296   3.812   4.701  0.8018  0.3327  0.5143
  165SAPE  H19R18517   0.344   3.767   4.611 -0.6663 -1.0579  0.3763
  165SAPE  H19S18518   0.356   3.779   4.789  2.3749  0.0232 -0.6182
  165SAPE  C22018519   0.293   3.963   4.680  0.7783  0.0454 -0.1649
  165SAPE  H20R18520   0.248   4.021   4.764 -3.2808  1.5506 -3.0873
  165SAPE  H20S18521   0.229   3.975   4.591 -0.6571  0.3212  0.8658
  165SAPE  H20T18522   0.394   4.006   4.663  0.9667  0.5402  1.8545
  165SAPE   C3318523   0.737   2.946   3.584  0.2453  0.3495 -0.3108
  165SAPE   H3X18524   0.774   3.049   3.560 -1.0986  0.6424 -1.2505
  165SAPE   H3Y18525   0.806   2.862   3.564 -2.8425 -2.4820  0.1379
  165SAPE   C3418526   0.708   2.951   3.731  0.3540 -0.1242  0.0654
  165SAPE   H4X18527   0.662   2.854   3.757  0.7369 -0.2430  0.3074
  165SAPE   H4Y18528   0.634   3.032   3.746 -1.8996 -2.0011 -0.3765
  165SAPE   C3518529   0.839   2.968   3.807 -0.1445 -0.4034 -0.1581
  165SAPE   H5X18530   0.867   3.075   3.802 -1.8788  0.0372 -1.2756
  165SAPE   H5Y18531   0.921   2.910   3.759  0.2591 -0.9824  1.1805
  165SAPE   C3618532   0.827   2.948   3.962  0.2872 -0.6751 -0.9016
  165SAPE   H6X18533   0.803   2.843   3.989  1.7824 -1.0118 -0.7535
  165SAPE   H6Y18534   0.737   3.005   3.993  0.7806 -0.8483  1.0203
  165SAPE   C3718535   0.948   2.980   4.036  0.2215 -0.5616  0.0190
  165SAPE   H7X18536   0.983   3.081   4.005  0.8117 -1.1365 -1.2764
  165SAPE   H7Y18537   1.027   2.909   4.003 -0.8592 -0.6722 -2.6044
  165SAPE   C3818538   0.923   2.961   4.186  0.6739  0.0818  0.1817
  165SAPE   H8X18539   0.891   2.855   4.197 -2.1650  0.9958  1.8908
  165SAPE   H8Y18540   0.843   3.025   4.228 -0.3734 -0.2802 -1.1839
  165SAPE   C3918541   1.042   2.989   4.271  0.6326 -0.1263  0.3213
  165SAPE   H9X18542   1.067   3.097   4.272 -0.4241  0.1337 -0.2151
  165SAPE   H9Y18543   1.134   2.939   4.236  0.2840 -1.1538  0.8188
  165SAPE  C31018544   1.027   2.928   4.415  0.0945  0.1187  0.0240
  165SAPE  H10X18545   0.941   2.974   4.469  0.5951  0.6332  0.3981
  165SAPE  H10Y18546   1.114   2.968   4.471 -0.3022 -0.8222  1.3726
  165SAPE  C31118547   1.022   2.776   4.436 -0.1369  1.0719  0.3657
  165SAPE  H11X18548   1.113   2.740   4.383 -0.0842 -2.0958  2.3903
  165SAPE  H11Y18549   0.934   2.730   4.388  0.0682 -1.7520  2.5070
  165SAPE  C31218550   1.020   2.713   4.576  0.2429  0.0364  0.1595
  165SAPE  H12X18551   1.024   2.602   4.568  0.3164 -0.1374  2.1619
  165SAPE  H12Y18552   0.917   2.728   4.615 -0.6346 -1.2956 -1.5317
  165SAPE  C31318553   1.140   2.759   4.658  0.4053 -0.2345 -0.0823
  165SAPE  H13X18554   1.151   2.870   4.651 -1.2378 -0.0971 -1.3690
  165SAPE  H13Y18555   1.233   2.721   4.612  0.1369  1.5678 -2.3189
  165SAPE  C31418556   1.139   2.731   4.814 -0.5304 -0.0729 -0.0319
  165SAPE  H14X18557   1.211   2.800   4.864  0.2682 -1.2774  0.5646
  165SAPE  H14Y18558   1.177   2.628   4.832  0.6462  0.4901  0.9130
  165SAPE  C31518559   0.998   2.753   4.872  0.1362 -0.1200 -0.0543
  165SAPE  H15X18560   0.934   2.663   4.859  0.3480 -0.1716 -0.7569
  165SAPE  H15Y18561   0.944   2.829   4.811  1.4498  0.5786 -0.3799
  165SAPE  C31618562   1.006   2.783   5.017 -0.5521  0.4177  0.2778
  165SAPE  H16X18563   1.073   2.872   5.025 -0.1676  0.3400 -1.6255
  165SAPE  H16Y18564   1.046   2.696   5.072 -1.1561 -0.0269  0.0208
  165SAPE  C31718565   0.872   2.824   5.085  0.0896 -0.1700 -0.2496
  165SAPE  H17X18566   0.897   2.830   5.193  0.9049 -0.6435 -0.3988
  165SAPE  H17Y18567   0.797   2.742   5.074 -0.8073  0.5033  0.6897
  165SAPE  C31818568   0.813   2.962   5.033 -0.2394  0.2219 -0.5155
  165SAPE  H18X18569   0.881   3.048   5.051 -0.1299 -0.3276  1.9894
  165SAPE  H18Y18570   0.725   2.975   5.099  1.2147 -0.6841  1.7195
  165SAPE  H18Z18571   0.790   2.970   4.924 -0.1804 -1.7176 -0.7086
  166SAPE     N18572   4.339   2.866   3.579  0.6882  0.6513 -0.4279
  166SAPE   HN118573   4.418   2.859   3.647  0.4370 -0.3078 -0.2235
  166SAPE   HN218574   4.254   2.842   3.632  2.1307 -1.2647  1.1702
  166SAPE   HN318575   4.346   2.802   3.498  2.2603  0.9707 -0.5791
  166SAPE   C1218576   4.316   3.003   3.527  0.1067 -0.0156  0.1501
  166SAPE  H12A18577   4.411   3.033   3.477 -0.6803 -1.0075 -2.0857
  166SAPE  H12B18578   4.293   3.066   3.616  1.4646 -0.5369  0.8946
  166SAPE   C1118579   4.198   3.015   3.430 -0.7326 -0.0661  0.0893
  166SAPE  H11A18580   4.236   2.969   3.336 -3.6978  1.3157 -1.9862
  166SAPE  H11B18581   4.172   3.121   3.407 -0.4958 -0.0232  0.0212
  166SAPE     P18582   3.957   2.942   3.386 -0.5134  0.5174  0.2668
  166SAPE   O1318583   3.900   3.082   3.400 -0.0033  0.4676 -0.9456
  166SAPE   O1418584   3.993   2.897   3.249  0.4182 -0.3087 -0.2202
  166SAPE   O1218585   4.088   2.942   3.482  0.5430  0.5791  0.4935
  166SAPE   O1118586   3.861   2.838   3.453 -0.3898 -0.2251  0.4752
  166SAPE    C118587   3.895   2.749   3.563 -0.0987 -0.6191  0.7886
  166SAPE    HA18588   3.824   2.665   3.558 -0.2553 -0.4316 -0.9561
  166SAPE    HB18589   4.001   2.717   3.547 -0.3274 -1.5777  1.1202
  166SAPE    C218590   3.885   2.823   3.700 -0.2637 -0.6053 -0.2558
  166SAPE    HS18591   3.960   2.905   3.687 -0.7255 -0.2516 -0.7179
  166SAPE   O2118592   3.921   2.733   3.808  0.1848 -0.5280 -0.5002
  166SAPE   C2118593   4.045   2.703   3.806  0.6859 -0.5979  0.3534
  166SAPE   O2218594   4.137   2.766   3.754  0.3935  0.0412 -1.0030
  166SAPE   C2218595   4.070   2.577   3.894 -0.4066 -0.3441 -0.2172
  166SAPE   H2R18596   3.972   2.525   3.900 -0.7405  0.0970 -1.5003
  166SAPE   H2S18597   4.151   2.513   3.854  1.0146 -0.2283  2.2936
  166SAPE    C318598   3.749   2.895   3.728  0.2279 -0.0257 -0.0469
  166SAPE    HX18599   3.670   2.818   3.718 -1.4360  1.7350 -1.2501
  166SAPE    HY18600   3.744   2.965   3.641  0.7662  1.1095  0.8129
  166SAPE   O3118601   3.742   2.966   3.858 -0.5481 -0.1698 -0.6288
  166SAPE   C3118602   3.694   3.084   3.867 -0.1998  0.4083  0.1222
  166SAPE   O3218603   3.650   3.145   3.769 -0.1775  0.4245  0.1860
  166SAPE   C3218604   3.680   3.132   4.010 -0.3540  0.4029 -0.3182
  166SAPE   H2X18605   3.692   3.043   4.075  0.8894  0.9093  0.1672
  166SAPE   H2Y18606   3.573   3.162   4.019 -0.5431 -0.9014  3.3108
  166SAPE   C2318607   4.124   2.617   4.035  0.3147  0.3824  0.6134
  166SAPE   H3R18608   4.100   2.521   4.086 -4.5406  1.7344  1.4024
  166SAPE   H3S18609   4.051   2.689   4.078 -1.1283 -0.8568  0.3333
  166SAPE   C2418610   4.271   2.664   4.043 -0.4513 -0.1762  0.1892
  166SAPE   H4R18611   4.266   2.760   3.988  4.0899 -1.7891 -3.8059
  166SAPE   H4S18612   4.342   2.596   3.991  1.7763  0.1248  2.6585
  166SAPE   C2518613   4.301   2.666   4.193  0.2041  0.2729  0.7956
  166SAPE   H5R18614   4.322   2.564   4.228 -0.1598 -0.7784 -1.7855
  166SAPE   C2618615   4.309   2.772   4.275 -0.1467 -0.8533 -0.5046
  166SAPE   H6R18616   4.330   2.758   4.381 -0.2970  1.4802 -0.1067
  166SAPE   C2718617   4.275   2.920   4.234 -0.1572  0.7016  0.1150
  166SAPE   H7R18618   4.227   2.981   4.314  1.1937  2.6864 -0.5236
  166SAPE   H7S18619   4.196   2.929   4.157  1.9415  1.4006 -2.0623
  166SAPE   C2818620   4.400   2.994   4.180  1.2247 -0.9183  0.3285
  166SAPE   H8R18621   4.405   2.991   4.070 -1.4730 -1.8170  0.1500
  166SAPE   C2918622   4.475   3.092   4.234  0.7698 -0.6941 -0.0082
  166SAPE   H9R18623   4.549   3.138   4.166  0.8934 -0.8671  0.0073
  166SAPE  C21018624   4.477   3.124   4.378  0.1804 -0.1174 -0.5397
  166SAPE  H10R18625   4.585   3.114   4.404  0.1094 -2.0778 -0.8335
  166SAPE  H10S18626   4.434   3.042   4.440  2.3082 -0.7335  0.2058
  166SAPE  C21118627   4.414   3.254   4.412  0.3965  0.3010  0.3526
  166SAPE  H11R18628   4.318   3.276   4.363 -0.9815  1.2811  3.2690
  166SAPE  C21218629   4.455   3.343   4.506 -0.5850  0.4002 -0.1059
  166SAPE  H12R18630   4.399   3.437   4.515 -0.0883  0.6878  0.0332
  166SAPE  C21318631   4.570   3.333   4.606  0.4304  0.4131 -0.2410
  166SAPE  H13R18632   4.640   3.419   4.608  0.5117  0.3960  2.9205
  166SAPE  H13S18633   4.629   3.245   4.573 -0.0479 -0.0580  0.1596
  166SAPE  C21418634   4.528   3.296   4.745 -0.1672 -0.0877 -0.1617
  166SAPE  H14R18635   4.429   3.249   4.754  0.2317 -0.8177  0.5588
  166SAPE  C21518636   4.595   3.295   4.864 -0.9130  0.2728 -0.0743
  166SAPE  H15R18637   4.551   3.258   4.957  0.9152 -1.3585  0.1857
  166SAPE  C21618638   4.739   3.341   4.876 -0.3503  0.0370 -0.1490
  166SAPE  H16R18639   4.764   3.430   4.939  2.1404 -0.6031 -0.1132
  166SAPE  H16S18640   4.786   3.367   4.779  0.4970 -1.6064 -0.2158
  166SAPE  C21718641   4.819   3.219   4.923 -0.6780 -0.2726  0.0926
  166SAPE  H17R18642   4.924   3.239   4.893 -0.8040  1.5106  0.7294
  166SAPE  H17S18643   4.781   3.130   4.868  1.6852 -0.3977 -1.4900
  166SAPE  C21818644   4.819   3.184   5.071  0.3115 -0.2611 -0.1510
  166SAPE  H18R18645   4.844   3.077   5.084 -0.6352 -0.5676 -0.7510
  166SAPE  H18S18646   4.722   3.201   5.124  0.2221 -0.9683 -0.0758
  166SAPE  C21918647   4.934   3.257   5.142 -0.4982  0.3244  0.0786
  166SAPE  H19R18648   4.983   3.333   5.077 -0.5088 -1.5322 -2.2216
  166SAPE  H19S18649   5.004   3.174   5.162 -2.4248 -1.6971 -1.1693
  166SAPE  C22018650   4.882   3.318   5.272 -0.1518  0.5390 -0.7387
  166SAPE  H20R18651   4.970   3.340   5.335 -1.8911  4.7634  0.5935
  166SAPE  H20S18652   4.818   3.241   5.321 -2.1823  0.6544 -2.9925
  166SAPE  H20T18653   4.819   3.407   5.250 -1.8936 -0.4946 -0.1441
  166SAPE   C3318654   3.767   3.257   4.046  0.9360  0.4598  0.1969
  166SAPE   H3X18655   3.724   3.282   4.146  0.8493  2.2333 -0.2476
  166SAPE   H3Y18656   3.758   3.342   3.975  0.3582  0.3585  0.1451
  166SAPE   C3418657   3.916   3.223   4.063  0.0619 -0.1677  0.4102
  166SAPE   H4X18658   3.977   3.315   4.045 -0.1045 -0.2913 -0.8910
  166SAPE   H4Y18659   3.954   3.155   3.984  0.2037 -0.6496  0.8913
  166SAPE   C3518660   3.952   3.168   4.196  0.3212  0.8307  0.2071
  166SAPE   H5X18661   4.051   3.118   4.182 -0.8903 -1.1631 -1.7933
  166SAPE   H5Y18662   3.879   3.092   4.229 -0.4249  0.7484 -1.5238
  166SAPE   C3618663   3.962   3.281   4.309 -0.4822 -0.3271 -0.3229
  166SAPE   H6X18664   3.858   3.317   4.328 -1.8025 -4.1115  0.5029
  166SAPE   H6Y18665   4.019   3.369   4.272 -0.6598 -0.2763 -0.4824
  166SAPE   C3718666   4.021   3.230   4.443  0.1356  0.0930  0.2020
  166SAPE   H7X18667   4.120   3.185   4.422  1.2841  1.5377  2.1052
  166SAPE   H7Y18668   3.955   3.149   4.481  0.6388  0.9131  3.1447
  166SAPE   C3818669   4.023   3.344   4.549  0.5982  0.5122  0.1058
  166SAPE   H8X18670   3.930   3.405   4.551 -0.0574 -0.4233 -0.8513
  166SAPE   H8Y18671   4.093   3.421   4.511  0.0737  0.6269 -0.6354
  166SAPE   C3918672   4.052   3.286   4.696  0.3142 -0.2873  0.8113
  166SAPE   H9X18673   4.112   3.194   4.677 -0.1077 -0.2560 -0.8875
  166SAPE   H9Y18674   3.962   3.253   4.751  0.7207  1.3089  2.5082
  166SAPE  C31018675   4.127   3.393   4.782  0.0321  0.9466  0.6591
  166SAPE  H10X18676   4.079   3.492   4.766 -1.6758 -0.0177 -0.4998
  166SAPE  H10Y18677   4.227   3.407   4.736 -1.7502  2.6489 -3.1555
  166SAPE  C31118678   4.144   3.358   4.927 -0.6021  0.0063 -0.3499
  166SAPE  H11X18679   4.159   3.248   4.940  3.0732  0.6076  2.0975
  166SAPE  H11Y18680   4.045   3.378   4.974  0.3428 -0.2440  1.8809
  166SAPE  C31218681   4.246   3.424   5.019 -0.5864  0.1364  0.2579
  166SAPE  H12X18682   4.238   3.535   5.014  1.7167  0.3187 -2.2644
  166SAPE  H12Y18683   4.338   3.394   4.964 -1.2017  1.5147 -1.6701
  166SAPE  C31318684   4.238   3.357   5.159  0.1644  0.0926  1.2559
  166SAPE  H13X18685   4.250   3.250   5.130 -1.5427  0.8686 -2.9883
  166SAPE  H13Y18686   4.137   3.382   5.197 -0.0204  0.0238  0.8120
  166SAPE  C31418687   4.345   3.394   5.261  0.3111  0.2492  0.2371
  166SAPE  H14X18688   4.333   3.500   5.291  0.6744 -0.1556  1.9339
  166SAPE  H14Y18689   4.447   3.373   5.223  0.3322 -4.5763  2.2254
  166SAPE  C31518690   4.319   3.314   5.392  0.1741 -0.3942  1.2776
  166SAPE  H15X18691   4.307   3.207   5.364 -0.0614  0.1889 -1.0854
  166SAPE  H15Y18692   4.228   3.364   5.432  0.2323  0.2119  0.6724
  166SAPE  C31618693   4.432   3.330   5.494  0.1243  0.4441 -0.3202
  166SAPE  H16X18694   4.453   3.438   5.503 -1.8763  1.2719 -3.7921
  166SAPE  H16Y18695   4.526   3.278   5.465 -0.7698 -2.4760  1.4831
  166SAPE  C31718696   4.390   3.276   5.630 -0.1701 -0.3629  0.9650
  166SAPE  H17X18697   4.311   3.341   5.673 -1.3169  0.0525 -1.5558
  166SAPE  H17Y18698   4.479   3.286   5.696  1.2995  1.3434 -1.1250
  166SAPE  C31818699   4.348   3.133   5.632  0.3024  0.6753 -0.1425
  166SAPE  H18X18700   4.347   3.088   5.733  0.9907 -1.0999 -0.8769
  166SAPE  H18Y18701   4.418   3.072   5.571 -0.0073  1.2468 -1.0854
  166SAPE  H18Z18702   4.246   3.111   5.595  1.2056 -1.7840 -1.4664
  167SAPE     N18703   1.414   1.969   3.182  0.1799  0.0706  0.0698
  167SAPE   HN118704   1.315   1.943   3.167 -0.2768  1.9066 -0.2954
  167SAPE   HN218705   1.415   2.062   3.228  1.5550 -1.0836  2.6083
  167SAPE   HN318706   1.471   1.980   3.096  0.1882 -0.6564 -0.0205
  167SAPE   C1218707   1.486   1.867   3.267 -0.3806  0.8347 -0.2337
  167SAPE  H12A18708   1.438   1.871   3.367  2.2102 -3.6779  1.5197
  167SAPE  H12B18709   1.592   1.899   3.280  0.7193 -2.7079  0.8374
  167SAPE   C1118710   1.456   1.725   3.210  0.4334 -0.0171  0.2106
  167SAPE  H11A18711   1.346   1.711   3.211  0.4457 -0.2683  2.3306
  167SAPE  H11B18712   1.501   1.646   3.273 -0.2251 -1.0470 -0.5791
  167SAPE     P18713   1.651   1.694   3.039 -0.1195 -0.0163 -0.1419
  167SAPE   O1318714   1.665   1.656   2.894 -0.1375  0.0525 -0.2954
  167SAPE   O1418715   1.729   1.808   3.090 -0.3125  0.1881  0.6550
  167SAPE   O1218716   1.498   1.715   3.076  0.3042  0.3750  0.2574
  167SAPE   O1118717   1.685   1.564   3.122  0.0652  0.1826 -0.2428
  167SAPE    C118718   1.618   1.442   3.103  0.0188  0.3675  1.5273
  167SAPE    HA18719   1.520   1.454   3.051  0.4387 -0.9283  0.3830
  167SAPE    HB18720   1.681   1.378   3.038 -1.0738  1.4875 -0.7684
  167SAPE    C218721   1.611   1.360   3.238 -0.0773 -0.5219 -0.3191
  167SAPE    HS18722   1.606   1.250   3.222  0.3048 -1.1868  3.2300
  167SAPE   O2118723   1.500   1.402   3.319  0.7906 -0.0783  0.3562
  167SAPE   C2118724   1.388   1.341   3.307  0.6086 -0.7346  0.6914
  167SAPE   O2218725   1.364   1.253   3.224  1.0642  0.2965  0.1843
  167SAPE   C2218726   1.278   1.397   3.401 -0.0015 -0.9486 -0.5066
  167SAPE   H2R18727   1.285   1.507   3.382 -1.4420 -0.7065  0.2324
  167SAPE   H2S18728   1.176   1.371   3.365 -0.2261  1.6105 -2.0439
  167SAPE    C318729   1.741   1.376   3.319 -0.5798 -0.2786  0.0934
  167SAPE    HX18730   1.758   1.478   3.360  0.0058 -1.4881  3.1220
  167SAPE    HY18731   1.824   1.366   3.245  0.4283  1.8044  0.8633
  167SAPE   O3118732   1.748   1.278   3.426 -0.0986  0.0340 -0.2825
  167SAPE   C3118733   1.680   1.325   3.542 -0.3337  0.2846 -0.4761
  167SAPE   O3218734   1.643   1.434   3.563  1.0486 -0.1648  0.0731
  167SAPE   C3218735   1.689   1.211   3.644 -0.4239 -0.3019 -0.6217
  167SAPE   H2X18736   1.793   1.173   3.646 -1.0280 -2.0129  0.3179
  167SAPE   H2Y18737   1.619   1.134   3.605 -1.9486  1.4925 -1.5984
  167SAPE   C2318738   1.291   1.374   3.558 -0.2668  0.2469 -0.0704
  167SAPE   H3R18739   1.191   1.400   3.598 -0.0556  1.3342 -0.2021
  167SAPE   H3S18740   1.363   1.444   3.604 -2.8112  2.7278  0.4038
  167SAPE   C2418741   1.308   1.226   3.601  0.2207  0.4669 -0.9994
  167SAPE   H4R18742   1.342   1.221   3.707 -0.1521 -0.7031 -0.9173
  167SAPE   H4S18743   1.395   1.192   3.540 -0.2072  0.0858 -1.4099
  167SAPE   C2518744   1.193   1.136   3.568  0.0953  0.0342 -0.1570
  167SAPE   H5R18745   1.159   1.131   3.463  0.8393 -1.2579 -0.3624
  167SAPE   C2618746   1.124   1.060   3.654  0.1908 -0.1973 -0.6058
  167SAPE   H6R18747   1.045   1.000   3.608 -0.4540  1.0519 -1.1770
  167SAPE   C2718748   1.157   1.035   3.798 -0.2363 -0.7480  0.7143
  167SAPE   H7R18749   1.166   1.131   3.852  0.9661 -0.9941  0.9617
  167SAPE   H7S18750   1.258   0.989   3.800  1.4786  2.5979 -1.0320
  167SAPE   C2818751   1.058   0.967   3.876  0.0631 -0.1293  0.1503
  167SAPE   H8R18752   0.954   1.002   3.863 -0.9125 -2.6499  0.4985
  167SAPE   C2918753   1.062   0.865   3.963  0.3631  0.0963  0.1250
  167SAPE   H9R18754   0.974   0.820   4.009 -0.0039  0.9655  0.2947
  167SAPE  C21018755   1.194   0.797   3.995  0.0296  0.8084 -0.3343
  167SAPE  H10R18756   1.265   0.812   3.911  1.4137  0.5532  0.7644
  167SAPE  H10S18757   1.173   0.689   4.005  0.9603  0.7551  1.2663
  167SAPE  C21118758   1.263   0.845   4.125 -0.9798  0.0744  0.4685
  167SAPE  H11R18759   1.317   0.941   4.122  0.0904 -0.5096 -2.4912
  167SAPE  C21218760   1.248   0.785   4.245 -0.0877 -0.8822  0.2882
  167SAPE  H12R18761   1.293   0.836   4.331 -0.8630 -0.7038  0.5950
  167SAPE  C21318762   1.184   0.657   4.269  0.5786  0.6896  0.3292
  167SAPE  H13R18763   1.257   0.597   4.327  1.3714  0.9705 -0.3610
  167SAPE  H13S18764   1.161   0.597   4.179 -1.0230  0.1809  1.0321
  167SAPE  C21418765   1.054   0.671   4.349 -0.0857 -0.1613  0.3210
  167SAPE  H14R18766   1.016   0.774   4.358 -1.8875 -0.4647 -2.5028
  167SAPE  C21518767   0.986   0.579   4.418 -0.1578  0.6267  0.0768
  167SAPE  H15R18768   0.888   0.598   4.463 -0.0837 -2.2098  1.6508
  167SAPE  C21618769   1.029   0.426   4.435 -0.3945 -0.0720 -1.4824
  167SAPE  H16R18770   1.058   0.410   4.541 -1.0355  0.1160 -1.2768
  167SAPE  H16S18771   1.107   0.390   4.364  0.2812  0.0359 -0.8108
  167SAPE  C21718772   0.910   0.330   4.410 -0.2273 -0.0008  0.3840
  167SAPE  H17R18773   0.947   0.227   4.392  2.6495  1.2395 -1.5201
  167SAPE  H17S18774   0.888   0.365   4.307 -0.4655  1.2321  0.8410
  167SAPE  C21818775   0.789   0.337   4.508 -0.8885  0.1559 -0.0932
  167SAPE  H18R18776   0.700   0.291   4.461  0.9171 -5.5257  1.2419
  167SAPE  H18S18777   0.784   0.446   4.529  1.1567  0.2432  0.2390
  167SAPE  C21918778   0.808   0.245   4.634 -0.4771 -0.0567  0.9187
  167SAPE  H19R18779   0.826   0.149   4.582  1.1619  1.4598 -1.5294
  167SAPE  H19S18780   0.720   0.237   4.701 -2.4440 -0.3121 -1.5667
  167SAPE  C22018781   0.923   0.257   4.726  0.4486 -0.0951 -0.1732
  167SAPE  H20R18782   1.007   0.228   4.659  2.8957  0.9877  2.2178
  167SAPE  H20S18783   0.914   0.197   4.820 -0.0557  0.5304  0.1816
  167SAPE  H20T18784   0.949   0.360   4.757  0.6411 -0.5570  1.3220
  167SAPE   C3318785   1.638   1.247   3.784 -0.4991  0.1981 -0.4064
  167SAPE   H3X18786   1.530   1.272   3.775 -0.9022 -0.6269  1.5620
  167SAPE   H3Y18787   1.686   1.337   3.829 -2.6285  1.5055 -0.5776
  167SAPE   C3418788   1.652   1.144   3.884 -0.2428 -0.1663 -0.1892
  167SAPE   H4X18789   1.757   1.121   3.911 -0.9451 -2.5678  0.7703
  167SAPE   H4Y18790   1.621   1.045   3.845  2.0194 -0.0025 -2.6519
  167SAPE   C3518791   1.567   1.180   4.003 -0.2048 -0.0639  0.3649
  167SAPE   H5X18792   1.459   1.177   3.978 -0.3229  0.9937  0.6976
  167SAPE   H5Y18793   1.586   1.284   4.038  1.9156 -0.6146  1.0272
  167SAPE   C3618794   1.583   1.076   4.115 -0.0851  0.5687 -0.3239
  167SAPE   H6X18795   1.691   1.076   4.144  0.0282  0.0438 -0.7376
  167SAPE   H6Y18796   1.550   0.974   4.086 -0.4348  0.5479  0.1413
  167SAPE   C3718797   1.498   1.105   4.237 -0.0301  0.1061  0.6304
  167SAPE   H7X18798   1.390   1.092   4.217  0.3990 -1.8086 -0.7145
  167SAPE   H7Y18799   1.517   1.214   4.248  0.7695  0.0208  0.2101
  167SAPE   C3818800   1.538   1.034   4.362  0.0204  0.3806  0.2950
  167SAPE   H8X18801   1.642   1.058   4.391  0.0031  3.2556 -1.6174
  167SAPE   H8Y18802   1.534   0.924   4.367 -0.3706  0.4378  1.6292
  167SAPE   C3918803   1.465   1.102   4.483  0.6208 -0.7759  0.4926
  167SAPE   H9X18804   1.355   1.105   4.470  0.4216  2.5627  2.0149
  167SAPE   H9Y18805   1.491   1.210   4.481  1.3929 -0.9522  0.6117
  167SAPE  C31018806   1.507   1.033   4.621  0.2270 -1.0020  0.4199
  167SAPE  H10X18807   1.618   1.031   4.625  0.2375  0.0912  3.5800
  167SAPE  H10Y18808   1.484   0.925   4.623 -0.9332 -0.8021 -0.8023
  167SAPE  C31118809   1.439   1.097   4.738  0.0174 -0.6406  0.2282
  167SAPE  H11X18810   1.329   1.085   4.720  0.3692 -1.2290 -1.8262
  167SAPE  H11Y18811   1.468   1.203   4.749  0.0363 -0.8150  2.3341
  167SAPE  C31218812   1.492   1.030   4.871  0.1822  0.0155 -0.6294
  167SAPE  H12X18813   1.590   1.075   4.897  0.4778 -1.0480  0.1202
  167SAPE  H12Y18814   1.508   0.922   4.854  3.0855  0.1581  0.7404
  167SAPE  C31318815   1.395   1.062   4.984 -0.0471  0.0878 -0.5514
  167SAPE  H13X18816   1.295   1.030   4.946 -0.6775  0.7990  0.4502
  167SAPE  H13Y18817   1.390   1.169   5.011 -2.1641 -0.1136  0.0347
  167SAPE  C31418818   1.432   0.997   5.118 -0.1614 -0.3436  0.1516
  167SAPE  H14X18819   1.533   1.024   5.155 -0.5779  0.0083  1.0443
  167SAPE  H14Y18820   1.423   0.888   5.101  0.0417 -0.3294 -0.0601
  167SAPE  C31518821   1.328   1.028   5.223  0.6385 -0.1385  0.5047
  167SAPE  H15X18822   1.244   0.956   5.226 -0.1095  0.7135  0.2485
  167SAPE  H15Y18823   1.290   1.128   5.192  1.4652 -0.6303 -2.3961
  167SAPE  C31618824   1.379   1.033   5.362  0.2579  0.2365 -0.3884
  167SAPE  H16X18825   1.423   1.136   5.366 -1.6402  1.0385  2.0331
  167SAPE  H16Y18826   1.448   0.948   5.380  1.9790  1.2856 -1.6347
  167SAPE  C31718827   1.271   1.038   5.471  0.2308 -0.1674  0.0869
  167SAPE  H17X18828   1.242   0.934   5.497 -2.7261  1.0528  2.1719
  167SAPE  H17Y18829   1.187   1.097   5.428  0.3447  0.2589  0.4448
  167SAPE  C31818830   1.318   1.108   5.602 -0.7843 -0.2260  0.2801
  167SAPE  H18X18831   1.241   1.141   5.675 -1.2711  0.6103 -0.5866
  167SAPE  H18Y18832   1.377   1.197   5.571 -1.9903  0.5799  0.2168
  167SAPE  H18Z18833   1.395   1.047   5.654  0.8863  0.9380 -0.7360
  168SAPE     N18834   3.949   0.879   3.015 -0.3579  1.3786  0.4586
  168SAPE   HN118835   4.047   0.883   2.978 -0.0280  1.0798  1.2966
  168SAPE   HN218836   3.904   0.804   2.959  2.8938  0.1495 -0.7462
  168SAPE   HN318837   3.898   0.966   2.989 -2.5277  0.1289  0.3298
  168SAPE   C1218838   3.940   0.833   3.152  0.1982 -0.5353 -0.9019
  168SAPE  H12A18839   3.836   0.857   3.183  0.8847  1.4261  0.0577
  168SAPE  H12B18840   4.017   0.896   3.203 -1.1584 -0.3539  1.0034
  168SAPE   C1118841   3.983   0.687   3.163  0.4493  0.5416 -0.3017
  168SAPE  H11A18842   3.905   0.628   3.112 -0.7683  0.5278  1.4767
  168SAPE  H11B18843   3.978   0.653   3.269  1.4091  1.8701  0.2050
  168SAPE     P18844   4.238   0.640   3.199 -0.5121  0.0248  0.1068
  168SAPE   O1318845   4.256   0.500   3.235 -0.6719  0.3933 -0.3047
  168SAPE   O1418846   4.351   0.716   3.137  0.3536 -1.1209  0.1987
  168SAPE   O1218847   4.112   0.659   3.101  0.5720 -0.5472  0.3091
  168SAPE   O1118848   4.199   0.728   3.331  0.6763  0.3497 -0.7738
  168SAPE    C118849   4.300   0.752   3.427  0.0879  0.8906  0.3270
  168SAPE    HA18850   4.404   0.741   3.391 -0.2306 -0.5047 -0.2312
  168SAPE    HB18851   4.294   0.856   3.467  2.3326  2.2961 -2.6418
  168SAPE    C218852   4.275   0.657   3.542  0.3558 -0.2707 -0.6702
  168SAPE    HS18853   4.273   0.553   3.503 -2.6029  0.1608 -1.9476
  168SAPE   O2118854   4.160   0.700   3.618  0.3512 -0.5360 -0.0724
  168SAPE   C2118855   4.040   0.647   3.595 -1.0102  0.3819 -0.2134
  168SAPE   O2218856   4.015   0.539   3.538  0.4275  0.4199 -0.4860
  168SAPE   C2218857   3.933   0.739   3.656 -0.9824  0.0636 -0.1256
  168SAPE   H2R18858   3.990   0.823   3.700  1.5071 -2.7141  2.4151
  168SAPE   H2S18859   3.866   0.773   3.574 -1.1546  0.9317  0.3620
  168SAPE    C318860   4.392   0.651   3.648 -0.9511  0.4293 -0.4302
  168SAPE    HX18861   4.409   0.751   3.693 -1.8304  0.0123  0.8715
  168SAPE    HY18862   4.485   0.622   3.593 -1.8816 -2.9723 -0.4801
  168SAPE   O3118863   4.380   0.553   3.755 -0.3514  0.5602  0.3276
  168SAPE   C3118864   4.329   0.596   3.870  0.3502 -0.0846 -0.2736
  168SAPE   O3218865   4.327   0.712   3.910 -0.3592  0.0689  0.6616
  168SAPE   C3218866   4.276   0.479   3.947  0.8823 -0.0104  0.0139
  168SAPE   H2X18867   4.295   0.382   3.898 -1.6822 -1.3022  1.3974
  168SAPE   H2Y18868   4.166   0.488   3.937  0.6639 -1.7753  0.5528
  168SAPE   C2318869   3.839   0.673   3.758 -0.4842 -0.2461  0.1471
  168SAPE   H3R18870   3.804   0.583   3.704 -0.1824 -0.2660 -0.0179
  168SAPE   H3S18871   3.750   0.739   3.765 -0.9280 -0.4130 -2.6772
  168SAPE   C2418872   3.906   0.632   3.886 -0.0346  0.2863 -0.0072
  168SAPE   H4R18873   3.983   0.558   3.855  0.7628  0.6721  1.0038
  168SAPE   H4S18874   3.833   0.590   3.958 -2.3445  2.2385 -1.0702
  168SAPE   C2518875   3.987   0.746   3.954 -0.5984  0.4173  0.3896
  168SAPE   H5R18876   4.081   0.765   3.900 -1.1594 -2.8464 -2.0777
  168SAPE   C2618877   3.948   0.813   4.060 -0.4732 -0.2209  0.7709
  168SAPE   H6R18878   4.002   0.902   4.097  1.3606  0.3731 -2.8723
  168SAPE   C2718879   3.817   0.799   4.133 -0.8006  0.6260  0.6257
  168SAPE   H7R18880   3.732   0.764   4.071 -0.7601 -1.4674  1.6615
  168SAPE   H7S18881   3.781   0.896   4.174  1.0441  1.6681 -0.0717
  168SAPE   C2818882   3.834   0.713   4.252  0.0506 -0.1578  0.0775
  168SAPE   H8R18883   3.860   0.608   4.231  1.9472  0.3523 -0.2883
  168SAPE   C2918884   3.827   0.749   4.382 -0.6841  0.4323  0.6052
  168SAPE   H9R18885   3.845   0.673   4.459  1.4536  0.4360  0.1670
  168SAPE  C21018886   3.809   0.885   4.440  0.4260 -0.1152 -0.3170
  168SAPE  H10R18887   3.699   0.893   4.435  0.3869 -0.4556  0.0182
  168SAPE  H10S18888   3.834   0.968   4.370  0.1103 -0.4859 -0.8746
  168SAPE  C21118889   3.869   0.910   4.571 -0.4973  0.7992 -0.8457
  168SAPE  H11R18890   3.979   0.905   4.578 -0.6479 -1.9277  1.6598
  168SAPE  C21218891   3.800   0.931   4.680 -0.4736 -1.0240 -0.9395
  168SAPE  H12R18892   3.860   0.946   4.771  0.0910  6.7388 -1.8778
  168SAPE  C21318893   3.653   0.932   4.714 -0.4740 -0.6681  0.3607
  168SAPE  H13R18894   3.594   1.001   4.650  2.7073  0.3016 -1.7439
  168SAPE  H13S18895   3.636   0.964   4.819  0.7315 -1.0624  0.6894
  168SAPE  C21418896   3.580   0.795   4.706  0.1964 -0.0816  0.0083
  168SAPE  H14R18897   3.551   0.769   4.602 -1.1761  3.5470 -0.6559
  168SAPE  C21518898   3.560   0.715   4.809 -0.4071 -0.4122  0.7325
  168SAPE  H15R18899   3.514   0.617   4.792 -0.7654  0.1258 -1.7752
  168SAPE  C21618900   3.612   0.732   4.952  0.5987 -0.2525 -0.6540
  168SAPE  H16R18901   3.660   0.831   4.969  0.3065 -0.3973  1.2088
  168SAPE  H16S18902   3.691   0.656   4.973  1.0534  0.5294  0.5301
  168SAPE  C21718903   3.495   0.729   5.053  0.5578 -0.5416  0.2737
  168SAPE  H17R18904   3.424   0.645   5.037  0.6011 -0.7192  0.9975
  168SAPE  H17S18905   3.440   0.824   5.034  3.4887  1.0671 -0.8181
  168SAPE  C21818906   3.538   0.737   5.205 -0.0002  0.0750 -0.6378
  168SAPE  H18R18907   3.571   0.840   5.230 -0.9772  0.4734 -0.9514
  168SAPE  H18S18908   3.621   0.665   5.223 -0.1149  0.1304  0.1443
  168SAPE  C21918909   3.419   0.727   5.304  0.4949 -0.3290 -0.1731
  168SAPE  H19R18910   3.343   0.801   5.269  0.0310  0.1485  1.7193
  168SAPE  H19S18911   3.451   0.757   5.406  0.1977 -1.7989  0.3649
  168SAPE  C22018912   3.347   0.590   5.317  0.0955 -0.4209  0.0020
  168SAPE  H20R18913   3.417   0.528   5.377 -0.7413 -2.0499 -0.6421
  168SAPE  H20S18914   3.325   0.552   5.215 -0.1013 -0.0892 -0.0816
  168SAPE  H20T18915   3.252   0.604   5.373 -0.0437  0.1309 -0.3648
  168SAPE   C3318916   4.305   0.477   4.100 -0.0278 -0.2107 -0.2158
  168SAPE   H3X18917   4.409   0.498   4.132 -1.3833  0.2257  4.5722
  168SAPE   H3Y18918   4.296   0.370   4.130 -0.1614  0.5306  2.5832
  168SAPE   C3418919   4.204   0.560   4.176 -0.1130  0.6232  0.2520
  168SAPE   H4X18920   4.104   0.517   4.151 -0.6594  0.4864  2.4852
  168SAPE   H4Y18921   4.216   0.669   4.156 -0.2861  0.5098 -0.5098
  168SAPE   C3518922   4.209   0.554   4.329  0.5662  0.5342  0.0280
  168SAPE   H5X18923   4.232   0.449   4.357 -1.1343 -0.1781 -1.0716
  168SAPE   H5Y18924   4.110   0.563   4.378  1.0696 -1.2537  1.4904
  168SAPE   C3618925   4.314   0.643   4.396  0.7476 -0.4792 -0.0294
  168SAPE   H6X18926   4.283   0.750   4.403  1.7157 -0.2440  0.9660
  168SAPE   H6Y18927   4.413   0.629   4.348  1.1528  0.8431  0.3666
  168SAPE   C3718928   4.346   0.605   4.543  0.5300 -0.0337  0.0437
  168SAPE   H7X18929   4.426   0.672   4.580 -0.9274  0.2683  2.9462
  168SAPE   H7Y18930   4.398   0.508   4.531 -1.4958 -1.6673  2.9776
  168SAPE   C3818931   4.241   0.604   4.647 -0.0716  0.0424 -0.1482
  168SAPE   H8X18932   4.183   0.511   4.634 -0.3228  0.1111  0.4485
  168SAPE   H8Y18933   4.168   0.688   4.643 -0.1923 -0.0209  0.5844
  168SAPE   C3918934   4.307   0.619   4.784  0.3352  0.0624 -0.5622
  168SAPE   H9X18935   4.361   0.715   4.792  0.4264  0.0698 -1.2365
  168SAPE   H9Y18936   4.387   0.543   4.795  0.3532  0.3480  1.7261
  168SAPE  C31018937   4.216   0.617   4.905  0.0929  0.6327 -0.1401
  168SAPE  H10X18938   4.158   0.522   4.902 -1.0924  1.3648 -1.2475
  168SAPE  H10Y18939   4.134   0.691   4.890 -0.3720  0.6724  2.2147
  168SAPE  C31118940   4.285   0.644   5.045  0.3216 -0.0118  0.6624
  168SAPE  H11X18941   4.337   0.743   5.045  1.3097 -0.4775 -1.3139
  168SAPE  H11Y18942   4.364   0.568   5.057 -0.2528 -1.2707 -2.5501
  168SAPE  C31218943   4.180   0.653   5.153  0.1223  0.2082  0.2055
  168SAPE  H12X18944   4.130   0.555   5.170  3.2573 -1.9178 -1.6163
  168SAPE  H12Y18945   4.100   0.719   5.115  0.9165  0.0413 -1.8787
  168SAPE  C31318946   4.241   0.711   5.278  0.3291 -0.3316 -0.4808
  168SAPE  H13X18947   4.274   0.817   5.270  0.3191 -0.1173  1.7767
  168SAPE  H13Y18948   4.335   0.657   5.301  2.2135  2.5933 -0.8384
  168SAPE  C31418949   4.158   0.702   5.404  0.5570 -1.0027  0.3257
  168SAPE  H14X18950   4.156   0.593   5.427  1.3886 -0.7671  1.6012
  168SAPE  H14Y18951   4.059   0.750   5.389  2.0256  2.4725  0.9494
  168SAPE  C31518952   4.226   0.787   5.518 -0.1150  0.4218  0.7995
  168SAPE  H15X18953   4.213   0.896   5.496 -0.0697  0.2275 -0.2446
  168SAPE  H15Y18954   4.330   0.749   5.521 -0.5504 -0.7593  1.7255
  168SAPE  C31618955   4.166   0.763   5.656 -0.0151 -0.4539  0.5548
  168SAPE  H16X18956   4.195   0.669   5.707  3.1434  0.6312  1.0149
  168SAPE  H16Y18957   4.055   0.764   5.659 -0.0261  0.3331  3.5684
  168SAPE  C31718958   4.204   0.883   5.741  0.7503  0.1189 -0.4643
  168SAPE  H17X18959   4.154   0.975   5.707 -1.9182 -0.6043  1.1782
  168SAPE  H17Y18960   4.312   0.908   5.733  0.6662  0.5725 -0.2157
  168SAPE  C31818961   4.162   0.852   5.888  0.7347  0.7238 -0.3364
  168SAPE  H18X18962   4.196   0.930   5.960 -0.5711  0.0429  1.0849
  168SAPE  H18Y18963   4.203   0.754   5.920  1.0158  0.6841 -0.8168
  168SAPE  H18Z18964   4.054   0.839   5.909  0.9635  1.0262  1.1875
  169SAPE     N18965   2.745   5.508   2.920 -0.2370 -0.1854  0.0208
  169SAPE   HN118966   2.825   5.482   2.859 -2.2925 -2.3601 -2.0147
  169SAPE   HN218967   2.739   5.436   2.995 -1.5162  0.1153  0.2376
  169SAPE   HN318968   2.663   5.506   2.856  0.6187  1.2133 -1.1728
  169SAPE   C1218969   2.764   5.645   2.979 -0.9892 -0.0356  0.0349
  169SAPE  H12A18970   2.863   5.645   3.029 -0.3419 -1.4076 -1.1552
  169SAPE  H12B18971   2.673   5.677   3.034 -0.1687 -0.3377  1.6125
  169SAPE   C1118972   2.763   5.737   2.856 -0.3973  0.0443  0.7161
  169SAPE  H11A18973   2.655   5.747   2.834 -0.5669 -1.3133  0.8438
  169SAPE  H11B18974   2.815   5.697   2.766 -1.3461 -0.4778  0.3944
  169SAPE     P18975   2.766   5.997   2.822 -0.0934 -0.2560  0.0497
  169SAPE   O1318976   2.863   6.108   2.832 -0.6571  0.4438  0.0647
  169SAPE   O1418977   2.727   5.961   2.690 -0.2115 -0.7591  0.0806
  169SAPE   O1218978   2.817   5.864   2.895 -0.6556 -0.6885 -0.1653
  169SAPE   O1118979   2.638   6.035   2.910  0.0371 -0.6448  0.4231
  169SAPE    C118980   2.595   5.955   3.023  0.3093  0.5500  0.3270
  169SAPE    HA18981   2.549   5.859   2.994  3.4866 -0.8534 -0.5525
  169SAPE    HB18982   2.683   5.926   3.085 -0.2542 -0.0562  0.8469
  169SAPE    C218983   2.511   6.032   3.125  0.0770  0.2370 -0.5013
  169SAPE    HS18984   2.406   6.015   3.092  0.3665 -1.8383 -0.4546
  169SAPE   O2118985   2.538   6.174   3.113 -0.4026 -0.5903 -0.3269
  169SAPE   C2118986   2.658   6.221   3.150  0.1180  0.0305 -0.5219
  169SAPE   O2218987   2.753   6.152   3.175  0.1378 -0.3082 -0.2675
  169SAPE   C2218988   2.672   6.371   3.125  0.1071  0.1330 -0.3008
  169SAPE   H2R18989   2.779   6.398   3.138  0.1228 -1.1493  3.1703
  169SAPE   H2S18990   2.636   6.383   3.020  1.1917 -1.3910 -0.8838
  169SAPE    C318991   2.531   5.973   3.269  0.2455 -0.7686 -0.4243
  169SAPE    HX18992   2.635   5.995   3.303  0.2404 -2.1787  0.5845
  169SAPE    HY18993   2.519   5.863   3.277  0.4505 -0.7013  1.2183
  169SAPE   O3118994   2.427   6.035   3.356  0.3419 -0.7060 -0.3109
  169SAPE   C3118995   2.464   6.144   3.433  0.8235 -0.0960 -0.3860
  169SAPE   O3218996   2.574   6.194   3.442  0.4579 -0.1512  0.4188
  169SAPE   C3218997   2.334   6.194   3.511  0.1420  0.0887 -0.6801
  169SAPE   H2X18998   2.277   6.108   3.550 -0.7032  1.9781  2.6186
  169SAPE   H2Y18999   2.267   6.254   3.444 -3.5878 -0.1792  2.4671
  169SAPE   C2319000   2.592   6.456   3.230 -0.6846 -0.3141  0.0326
  169SAPE   H3R19001   2.501   6.409   3.272  0.1967 -2.7029 -0.5891
  169SAPE   H3S19002   2.558   6.539   3.164 -0.7183  0.3112  0.8228
  169SAPE   C2419003   2.684   6.508   3.346 -0.3594 -0.0019  0.0091
  169SAPE   H4R19004   2.792   6.504   3.318 -0.0997  0.4138  0.9025
  169SAPE   H4S19005   2.684   6.437   3.432  1.9208 -0.8678 -0.6118
  169SAPE   C2519006   2.650   6.651   3.387  0.0486 -0.6972  0.6029
  169SAPE   H5R19007   2.643   6.714   3.297  1.1006  2.2379  2.4343
  169SAPE   C2619008   2.630   6.694   3.516  0.0448  0.8303  0.3884
  169SAPE   H6R19009   2.615   6.801   3.537 -0.4090  0.8355  0.0544
  169SAPE   C2719010   2.636   6.608   3.638  0.1520  0.0559  0.6434
  169SAPE   H7R19011   2.743   6.616   3.666  0.0265  1.9606  0.7265
  169SAPE   H7S19012   2.611   6.502   3.614  1.2834 -0.5277  1.8595
  169SAPE   C2819013   2.538   6.657   3.738 -0.2849  0.4009  0.1561
  169SAPE   H8R19014   2.444   6.601   3.727  1.1425 -1.9190 -0.8712
  169SAPE   C2919015   2.559   6.728   3.849  0.7659 -0.6432 -0.2593
  169SAPE   H9R19016   2.483   6.750   3.926  0.4509 -0.0771 -0.7239
  169SAPE  C21019017   2.698   6.790   3.883  0.1744  0.7801  0.0974
  169SAPE  H10R19018   2.750   6.815   3.789 -0.5900  2.5317  0.0890
  169SAPE  H10S19019   2.752   6.702   3.925  1.0076  2.0217  1.7636
  169SAPE  C21119020   2.708   6.901   3.983  0.0441  0.0881 -0.1260
  169SAPE  H11R19021   2.723   6.997   3.931  0.0539  1.0255  1.5430
  169SAPE  C21219022   2.726   6.899   4.116  0.5594  0.2929  0.0109
  169SAPE  H12R19023   2.741   6.990   4.177 -1.0975  0.4946  0.1511
  169SAPE  C21319024   2.722   6.776   4.200 -0.1481  0.2927 -0.1125
  169SAPE  H13R19025   2.802   6.769   4.277  1.3173  1.8304 -1.4054
  169SAPE  H13S19026   2.738   6.682   4.143 -2.9769 -0.5121  0.2569
  169SAPE  C21419027   2.588   6.784   4.272 -0.2518 -0.8760  0.0392
  169SAPE  H14R19028   2.503   6.747   4.213  0.0912  1.2676 -1.9171
  169SAPE  C21519029   2.569   6.806   4.401  0.3528 -0.1171 -0.4844
  169SAPE  H15R19030   2.468   6.793   4.443  0.2780 -1.2050 -0.9626
  169SAPE  C21619031   2.659   6.850   4.510 -0.5020  0.0918 -0.6209
  169SAPE  H16R19032   2.625   6.947   4.551 -0.2717 -0.5105  1.0613
  169SAPE  H16S19033   2.764   6.862   4.475  0.1780 -2.1249  0.4711
  169SAPE  C21719034   2.662   6.752   4.637  0.2464  0.2271  0.1981
  169SAPE  H17R19035   2.698   6.651   4.610 -2.0800 -0.4295 -0.7122
  169SAPE  H17S19036   2.563   6.737   4.684  1.0478  0.9135  2.2341
  169SAPE  C21819037   2.754   6.815   4.740  0.4827 -0.2577 -0.1766
  169SAPE  H18R19038   2.845   6.853   4.690  0.3240 -0.0628 -0.3232
  169SAPE  H18S19039   2.774   6.734   4.814 -0.7358 -0.8335 -0.4499
  169SAPE  C21919040   2.686   6.924   4.829  0.3793  0.7228  0.1741
  169SAPE  H19R19041   2.580   6.891   4.839  1.7074 -4.7370 -0.8969
  169SAPE  H19S19042   2.702   7.010   4.761  3.5013 -2.1062 -3.0361
  169SAPE  C22019043   2.748   6.941   4.965 -0.0795 -0.2242 -0.5399
  169SAPE  H20R19044   2.743   6.841   5.014  0.2770 -0.6274 -1.3158
  169SAPE  H20S19045   2.695   7.024   5.017  0.7904  0.8288 -1.3099
  169SAPE  H20T19046   2.858   6.960   4.965 -0.1859  0.6375  1.3841
  169SAPE   C3319047   2.376   6.281   3.635  0.0400 -0.3053  0.2044
  169SAPE   H3X19048   2.283   6.331   3.669 -0.2535  1.4802 -2.9172
  169SAPE   H3Y19049   2.438   6.364   3.598  0.9018 -1.2348 -0.4797
  169SAPE   C3419050   2.446   6.206   3.750  0.0943  0.2007  0.6752
  169SAPE   H4X19051   2.553   6.192   3.726 -0.1933 -0.1229 -0.4564
  169SAPE   H4Y19052   2.394   6.108   3.752 -1.9719  1.1176 -1.9993
  169SAPE   C3519053   2.414   6.273   3.883  0.1216  0.2854  0.0649
  169SAPE   H5X19054   2.309   6.288   3.917  0.0242  0.4906 -0.3215
  169SAPE   H5Y19055   2.469   6.369   3.880 -0.7445  0.7669 -0.9725
  169SAPE   C3619056   2.479   6.196   3.998  0.1950 -0.1743 -0.2423
  169SAPE   H6X19057   2.581   6.186   3.953  0.8646  1.2661  0.8387
  169SAPE   H6Y19058   2.431   6.098   4.015  1.7664 -1.1254 -1.0350
  169SAPE   C3719059   2.468   6.266   4.140  0.1267  0.1055  0.3397
  169SAPE   H7X19060   2.358   6.261   4.157 -0.2441 -2.2940 -2.1030
  169SAPE   H7Y19061   2.510   6.369   4.134  1.3186 -0.3820 -0.0235
  169SAPE   C3819062   2.565   6.188   4.239 -0.1450  0.5684 -0.2104
  169SAPE   H8X19063   2.671   6.206   4.212  0.0242  1.1857  0.8060
  169SAPE   H8Y19064   2.535   6.081   4.234 -2.3549  1.1399 -0.2488
  169SAPE   C3919065   2.543   6.227   4.389 -0.0237 -0.1986  0.5569
  169SAPE   H9X19066   2.436   6.199   4.404 -0.1308  0.4707  1.1097
  169SAPE   H9Y19067   2.557   6.337   4.396 -0.3583 -0.2570  2.7609
  169SAPE  C31019068   2.649   6.166   4.480 -0.2043 -0.4390  0.3086
  169SAPE  H10X19069   2.739   6.231   4.480 -1.2728  1.1098  0.0932
  169SAPE  H10Y19070   2.687   6.066   4.451  1.8632  0.5380 -0.5306
  169SAPE  C31119071   2.608   6.162   4.632  0.4430 -0.1619 -0.0426
  169SAPE  H11X19072   2.530   6.083   4.639 -0.1059  0.4433  1.0726
  169SAPE  H11Y19073   2.546   6.253   4.647  2.6600  1.4293 -0.1727
  169SAPE  C31219074   2.726   6.133   4.733 -0.0756  0.0860  0.0686
  169SAPE  H12X19075   2.791   6.218   4.760 -0.1600 -0.0668  0.7899
  169SAPE  H12Y19076   2.785   6.051   4.686 -1.1141 -0.9196  0.4501
  169SAPE  C31319077   2.666   6.090   4.865 -0.4214  0.2175  0.0513
  169SAPE  H13X19078   2.599   6.003   4.848 -0.2542  0.2137 -0.6048
  169SAPE  H13Y19079   2.618   6.177   4.914 -1.5487 -0.7251  0.6642
  169SAPE  C31419080   2.774   6.032   4.958  0.2399  0.1591 -0.9748
  169SAPE  H14X19081   2.860   6.101   4.952  0.4624  0.1719  1.5426
  169SAPE  H14Y19082   2.812   5.931   4.931  0.7389 -0.2023  0.9527
  169SAPE  C31519083   2.731   6.035   5.110 -0.1111  0.4025  0.1235
  169SAPE  H15X19084   2.751   6.136   5.152  0.2144 -0.1953  1.4511
  169SAPE  H15Y19085   2.795   5.961   5.163 -1.0686  0.3849  1.3243
  169SAPE  C31619086   2.583   6.008   5.142  0.6559 -1.0175  0.0918
  169SAPE  H16X19087   2.539   5.909   5.117 -1.0870  0.0603 -1.2958
  169SAPE  H16Y19088   2.523   6.087   5.092  0.5217 -0.0440  1.7382
  169SAPE  C31719089   2.544   6.029   5.295  0.4869 -0.0626 -0.7892
  169SAPE  H17X19090   2.597   5.959   5.363 -2.1494 -2.8658 -1.4122
  169SAPE  H17Y19091   2.439   5.998   5.313  0.6236  0.6266  1.5889
  169SAPE  C31819092   2.559   6.173   5.349  0.1234 -0.1532 -0.0599
  169SAPE  H18X19093   2.517   6.251   5.283  1.2609 -0.1758 -0.8451
  169SAPE  H18Y19094   2.667   6.200   5.357  0.1574 -0.6975  1.7647
  169SAPE  H18Z19095   2.513   6.179   5.450  1.6741 -0.4133  0.7084
  170SAPE     N19096   3.187   2.200   3.251  0.4888  0.1927  1.0958
  170SAPE   HN119097   3.182   2.297   3.290 -2.2735  0.9334 -0.7904
  170SAPE   HN219098   3.087   2.179   3.233  0.4538  1.2939 -0.2838
  170SAPE   HN319099   3.223   2.125   3.312 -0.8792 -2.2904 -0.9727
  170SAPE   C1219100   3.254   2.203   3.111  0.3116 -0.1265 -0.5737
  170SAPE  H12A19101   3.220   2.298   3.065 -2.6638 -0.9260 -0.2204
  170SAPE  H12B19102   3.221   2.116   3.050  1.7607  0.4259 -2.2243
  170SAPE   C1119103   3.406   2.198   3.136 -0.6813 -0.3211 -0.0488
  170SAPE  H11A19104   3.448   2.281   3.197  2.0194 -0.9950 -0.8206
  170SAPE  H11B19105   3.444   2.225   3.035 -0.9470  0.3477  0.0209
  170SAPE     P19106   3.596   2.038   3.218 -0.1992 -0.3853  0.5896
  170SAPE   O1319107   3.620   1.917   3.294 -0.2141  0.4873 -0.5516
  170SAPE   O1419108   3.660   2.040   3.083 -0.4866  0.3019  0.7029
  170SAPE   O1219109   3.447   2.075   3.198  0.4043  0.2599 -0.2381
  170SAPE   O1119110   3.654   2.156   3.304  0.0015 -0.3072 -0.1415
  170SAPE    C119111   3.624   2.182   3.439 -0.0249  0.2747  0.4402
  170SAPE    HA19112   3.516   2.190   3.462 -0.0381 -2.0751  1.4774
  170SAPE    HB19113   3.665   2.098   3.499  0.9450  1.0595  0.9219
  170SAPE    C219114   3.694   2.301   3.496 -0.3470 -0.6697 -0.5004
  170SAPE    HS19115   3.797   2.298   3.455 -0.4304  3.1306 -1.3024
  170SAPE   O2119116   3.684   2.302   3.639 -0.0855 -0.6589 -0.7550
  170SAPE   C2119117   3.771   2.370   3.708  0.3234 -0.3399 -0.2118
  170SAPE   O2219118   3.864   2.432   3.672 -0.5834 -0.0222  0.3457
  170SAPE   C2219119   3.728   2.375   3.854  0.2757 -0.4146  0.0484
  170SAPE   H2R19120   3.657   2.292   3.874  0.5601 -0.3112  1.5991
  170SAPE   H2S19121   3.823   2.348   3.905  1.6593 -0.1674 -2.2517
  170SAPE    C319122   3.636   2.436   3.435  0.0414 -0.2463  0.2734
  170SAPE    HX19123   3.657   2.432   3.326  2.0046  2.4342  0.4560
  170SAPE    HY19124   3.707   2.513   3.472  0.9158 -1.1384  0.5061
  170SAPE   O3119125   3.497   2.458   3.463  0.9319 -0.6295  0.2713
  170SAPE   C3119126   3.455   2.541   3.556  0.0302  0.1543 -0.4819
  170SAPE   O3219127   3.510   2.637   3.604 -0.4538  0.4690 -0.2184
  170SAPE   C3219128   3.311   2.501   3.585 -0.1174 -0.5040 -0.3156
  170SAPE   H2X19129   3.265   2.439   3.505  1.7334 -0.1596 -1.7164
  170SAPE   H2Y19130   3.245   2.591   3.585 -0.0479 -0.4304  0.8874
  170SAPE   C2319131   3.676   2.519   3.897 -0.2549 -0.0074 -0.4967
  170SAPE   H3R19132   3.580   2.541   3.845 -1.8095  0.3056  2.2981
  170SAPE   H3S19133   3.748   2.601   3.876 -0.0296 -0.1066 -0.1213
  170SAPE   C2419134   3.650   2.537   4.053 -0.1635  0.0329  0.1479
  170SAPE   H4R19135   3.548   2.502   4.082 -0.3732  0.1091 -0.4791
  170SAPE   H4S19136   3.660   2.645   4.074 -1.2493  0.3387 -0.7672
  170SAPE   C2519137   3.738   2.462   4.149 -0.1344 -0.3847  0.3441
  170SAPE   H5R19138   3.745   2.358   4.115 -2.2048 -1.3814  2.6465
  170SAPE   C2619139   3.795   2.509   4.260 -0.4478  0.3671 -0.3880
  170SAPE   H6R19140   3.861   2.445   4.319  0.2992 -1.6370 -3.1685
  170SAPE   C2719141   3.774   2.639   4.330 -0.1180 -0.9789  0.0087
  170SAPE   H7R19142   3.759   2.632   4.440 -2.5476 -0.2742 -0.2316
  170SAPE   H7S19143   3.676   2.676   4.293 -0.3582 -2.0242 -0.4517
  170SAPE   C2819144   3.873   2.753   4.315  0.2348 -0.3274  0.0727
  170SAPE   H8R19145   3.861   2.812   4.223 -0.5774 -0.6621 -0.0503
  170SAPE   C2919146   3.951   2.797   4.415 -0.3133 -0.9382 -0.1693
  170SAPE   H9R19147   4.011   2.888   4.400 -1.4338  0.2582  2.0271
  170SAPE  C21019148   3.974   2.731   4.546  0.2626  0.9177 -0.1275
  170SAPE  H10R19149   3.927   2.630   4.546  2.2483 -0.0452  0.8632
  170SAPE  H10S19150   3.927   2.795   4.624  2.4255  0.9305  1.2402
  170SAPE  C21119151   4.123   2.708   4.566 -0.1889  0.2686 -0.2921
  170SAPE  H11R19152   4.178   2.635   4.504  1.1671  0.1715  0.9723
  170SAPE  C21219153   4.193   2.802   4.631 -0.8106  0.2889  0.1419
  170SAPE  H12R19154   4.302   2.791   4.616 -0.7105  2.7017 -1.4166
  170SAPE  C21319155   4.155   2.931   4.694 -0.2695 -0.7544 -0.5298
  170SAPE  H13R19156   4.057   2.962   4.654 -0.5480 -1.9102 -0.8013
  170SAPE  H13S19157   4.237   2.999   4.664  0.3776 -0.7062  1.2203
  170SAPE  C21419158   4.143   2.927   4.845 -0.0770 -0.7440  0.1182
  170SAPE  H14R19159   4.051   2.881   4.883 -0.3971 -0.1435  0.0940
  170SAPE  C21519160   4.235   2.957   4.937 -0.2220 -0.8945 -0.4739
  170SAPE  H15R19161   4.219   2.959   5.046 -0.4058  1.4127 -0.5049
  170SAPE  C21619162   4.377   2.994   4.895  0.1090  0.1103 -0.0141
  170SAPE  H16R19163   4.395   3.098   4.929 -1.9928  0.1231  1.2342
  170SAPE  H16S19164   4.393   2.990   4.785  1.4406 -1.0654  0.1987
  170SAPE  C21719165   4.488   2.901   4.943  0.0762  0.4690 -0.5332
  170SAPE  H17R19166   4.574   2.945   4.889  0.1505  1.0212  0.0266
  170SAPE  H17S19167   4.470   2.795   4.912  0.0858 -0.1225  1.3605
  170SAPE  C21819168   4.515   2.917   5.096 -0.5844  0.6807  0.6059
  170SAPE  H18R19169   4.424   2.933   5.157 -0.2512 -1.2799  1.7057
  170SAPE  H18S19170   4.571   3.012   5.103  3.2105 -1.4056  1.8364
  170SAPE  C21919171   4.606   2.813   5.172  0.1229  0.4239 -0.4223
  170SAPE  H19R19172   4.696   2.806   5.107 -1.0368 -2.2625 -1.8343
  170SAPE  H19S19173   4.552   2.717   5.176  0.7868  0.0484 -0.2709
  170SAPE  C22019174   4.655   2.862   5.311 -0.3792 -0.1961  0.0629
  170SAPE  H20R19175   4.576   2.855   5.389 -0.8814 -1.1345 -0.5161
  170SAPE  H20S19176   4.682   2.970   5.300 -1.5931 -0.0581 -2.2568
  170SAPE  H20T19177   4.749   2.807   5.333 -1.2284 -1.6375  0.2136
  170SAPE   C3319178   3.293   2.442   3.727  0.2652  0.4437 -0.4738
  170SAPE   H3X19179   3.344   2.504   3.804  1.2269 -1.8248  0.8205
  170SAPE   H3Y19180   3.350   2.347   3.725  0.6179  0.6698 -1.3002
  170SAPE   C3419181   3.147   2.429   3.777  0.3345 -0.1700  0.5738
  170SAPE   H4X19182   3.094   2.389   3.688  1.5465 -1.0713  0.2203
  170SAPE   H4Y19183   3.111   2.531   3.800 -0.6378  0.1609 -2.1166
  170SAPE   C3519184   3.130   2.348   3.905 -0.4836 -0.0315  0.7384
  170SAPE   H5X19185   3.175   2.247   3.893 -3.7001 -1.3183 -2.3066
  170SAPE   H5Y19186   3.020   2.329   3.912 -0.3370 -2.0610 -1.2280
  170SAPE   C3619187   3.185   2.410   4.038  0.2808 -0.5351  0.7506
  170SAPE   H6X19188   3.121   2.496   4.066  3.1461  1.0396  3.0792
  170SAPE   H6Y19189   3.283   2.449   4.002 -0.9063  2.3249  0.3602
  170SAPE   C3719190   3.187   2.304   4.146 -0.3242  0.4470  0.9195
  170SAPE   H7X19191   3.234   2.211   4.109  0.3799  0.3097  2.1043
  170SAPE   H7Y19192   3.086   2.279   4.184 -0.3079  2.2129  2.2632
  170SAPE   C3819193   3.269   2.338   4.269 -0.9987 -0.2299  0.3042
  170SAPE   H8X19194   3.208   2.378   4.352  0.9971  2.2046  0.6860
  170SAPE   H8Y19195   3.348   2.412   4.245  2.6879 -3.5076  1.2870
  170SAPE   C3919196   3.353   2.210   4.316 -0.6144 -0.6544  0.5255
  170SAPE   H9X19197   3.405   2.170   4.227 -0.5161 -0.0708  0.3168
  170SAPE   H9Y19198   3.288   2.132   4.362  1.0694 -2.5505 -0.2016
  170SAPE  C31019199   3.463   2.230   4.429 -0.2777 -0.1546  0.0898
  170SAPE  H10X19200   3.552   2.274   4.378  0.4076 -1.0317  0.5120
  170SAPE  H10Y19201   3.495   2.132   4.471  1.7326  1.1757  1.8700
  170SAPE  C31119202   3.423   2.338   4.534 -0.0192  0.4966 -0.0509
  170SAPE  H11X19203   3.321   2.303   4.562 -0.6389 -0.2351 -2.8716
  170SAPE  H11Y19204   3.404   2.435   4.483  1.8889  0.0445 -1.7567
  170SAPE  C31219205   3.524   2.354   4.648 -0.5545 -0.1439  0.3324
  170SAPE  H12X19206   3.546   2.259   4.701  0.7798  0.4339  0.8483
  170SAPE  H12Y19207   3.486   2.429   4.720  0.9006  0.2397  0.7328
  170SAPE  C31319208   3.654   2.406   4.582  0.4952  0.1440 -0.3739
  170SAPE  H13X19209   3.628   2.502   4.533  1.6367  0.2464 -0.8080
  170SAPE  H13Y19210   3.678   2.343   4.493 -2.6035 -1.8645  0.0568
  170SAPE  C31419211   3.763   2.408   4.693  0.0069 -0.8196  0.1671
  170SAPE  H14X19212   3.863   2.400   4.645 -0.5777  0.9407 -1.4995
  170SAPE  H14Y19213   3.756   2.319   4.759  0.8228  0.1402  1.5819
  170SAPE  C31519214   3.748   2.532   4.778  0.5941  0.3830  0.5898
  170SAPE  H15X19215   3.658   2.513   4.841  1.5137  0.5365  1.9730
  170SAPE  H15Y19216   3.737   2.630   4.728  0.1172  0.5157  0.9439
  170SAPE  C31619217   3.870   2.541   4.866  0.3889 -0.5902 -0.4577
  170SAPE  H16X19218   3.961   2.549   4.803  1.2646 -1.2279  0.6899
  170SAPE  H16Y19219   3.883   2.447   4.925 -1.4999 -0.9921 -0.6280
  170SAPE  C31719220   3.871   2.660   4.970  0.1098  0.5016  1.1510
  170SAPE  H17X19221   3.780   2.643   5.032  0.6541 -1.0683  1.5583
  170SAPE  H17Y19222   3.854   2.759   4.923 -0.9887 -0.5784 -0.8620
  170SAPE  C31819223   4.000   2.666   5.054  0.3298 -0.1274  0.6347
  170SAPE  H18X19224   4.023   2.758   5.111 -1.5339  0.5337  0.3864
  170SAPE  H18Y19225   4.088   2.654   4.988  0.3025 -0.5011  0.6603
  170SAPE  H18Z19226   3.995   2.578   5.122 -0.2676 -0.1699  0.5482
  171SAPE     N19227   3.702   6.429   3.005  0.7365 -0.4372  0.1676
  171SAPE   HN119228   3.704   6.497   2.926 -0.3658  0.1216  0.6039
  171SAPE   HN219229   3.746   6.482   3.083 -1.4956  1.0635  0.5000
  171SAPE   HN319230   3.755   6.345   2.975 -1.6117 -1.3603 -1.7230
  171SAPE   C1219231   3.560   6.389   3.032  0.2652  0.3623  0.2892
  171SAPE  H12A19232   3.521   6.483   3.078  0.7615  0.1086  1.2570
  171SAPE  H12B19233   3.564   6.311   3.111 -0.5298 -0.2871 -0.2852
  171SAPE   C1119234   3.499   6.338   2.897 -0.0611  0.1959  0.1720
  171SAPE  H11A19235   3.399   6.309   2.935 -0.3274 -0.5337 -1.0547
  171SAPE  H11B19236   3.547   6.244   2.862  1.6347  0.7671  0.8752
  171SAPE     P19237   3.403   6.540   2.763  0.0344  0.2617  0.0367
  171SAPE   O1319238   3.439   6.628   2.658 -0.0998 -0.1383 -0.3770
  171SAPE   O1419239   3.272   6.475   2.749  0.3158 -0.3167 -0.5468
  171SAPE   O1219240   3.514   6.436   2.786 -0.4596 -0.2377  0.0880
  171SAPE   O1119241   3.393   6.624   2.898  0.5103 -0.3022 -0.2484
  171SAPE    C119242   3.502   6.709   2.938 -0.0039  0.0578 -0.0965
  171SAPE    HA19243   3.581   6.661   2.999 -0.2393  2.0138  1.8644
  171SAPE    HB19244   3.549   6.759   2.849  0.4810 -0.2417 -0.0134
  171SAPE    C219245   3.449   6.819   3.034  0.0659  0.0107  0.0401
  171SAPE    HS19246   3.532   6.839   3.105  0.9148 -1.6916 -0.4263
  171SAPE   O2119247   3.332   6.776   3.109 -0.0622 -0.2888 -0.4361
  171SAPE   C2119248   3.355   6.683   3.197  0.1684  0.5037  0.1697
  171SAPE   O2219249   3.469   6.635   3.223 -0.0075 -0.8914  0.1761
  171SAPE   C2219250   3.221   6.622   3.242 -0.2403  0.4318 -0.4422
  171SAPE   H2R19251   3.169   6.710   3.286  1.7083  1.6047 -0.3682
  171SAPE   H2S19252   3.167   6.578   3.155 -1.2573 -1.8327  1.2581
  171SAPE    C319253   3.412   6.957   2.973  0.2984  0.0424 -0.2835
  171SAPE    HX19254   3.356   6.930   2.881 -0.5403 -0.1562  0.2745
  171SAPE    HY19255   3.505   7.007   2.939 -1.0025  1.5040 -1.8866
  171SAPE   O3119256   3.338   7.052   3.059 -0.1292  0.7567  0.0361
  171SAPE   C3119257   3.405   7.132   3.133 -0.5849  0.2159  0.2381
  171SAPE   O3219258   3.528   7.131   3.140 -0.3747 -0.0358 -0.2307
  171SAPE   C3219259   3.310   7.218   3.229 -0.1765  0.4187 -0.2675
  171SAPE   H2X19260   3.247   7.284   3.164 -0.1778 -0.2736 -0.9772
  171SAPE   H2Y19261   3.372   7.280   3.297  0.0647 -1.0826  0.9252
  171SAPE   C2319262   3.255   6.519   3.350  0.4363 -0.2257 -0.5202
  171SAPE   H3R19263   3.330   6.573   3.412 -0.2205  2.0008 -1.5645
  171SAPE   H3S19264   3.314   6.433   3.310 -0.5668 -1.1066 -0.1626
  171SAPE   C2419265   3.137   6.476   3.439  0.0554  0.6840  0.0624
  171SAPE   H4R19266   3.179   6.381   3.478  1.8829  2.0506  1.5399
  171SAPE   H4S19267   3.046   6.448   3.381  0.2123 -1.4631  0.7440
  171SAPE   C2519268   3.100   6.571   3.546 -0.3111 -0.2031 -0.5700
  171SAPE   H5R19269   3.115   6.677   3.519  0.4297 -0.2916 -0.5280
  171SAPE   C2619270   3.068   6.527   3.669  0.4919  0.0794  0.6204
  171SAPE   H6R19271   3.036   6.599   3.746 -1.5819 -1.5109  1.3212
  171SAPE   C2719272   3.045   6.391   3.731 -0.6121 -0.7672  0.0370
  171SAPE   H7R19273   3.074   6.387   3.838 -2.2881  2.0347  0.6933
  171SAPE   H7S19274   3.104   6.315   3.674  1.7300 -0.9862  2.5769
  171SAPE   C2819275   2.897   6.356   3.715  0.0521 -0.9050  0.0853
  171SAPE   H8R19276   2.863   6.319   3.617  1.8870 -2.2332 -0.0977
  171SAPE   C2919277   2.810   6.358   3.821 -0.3143  0.6848 -0.3253
  171SAPE   H9R19278   2.702   6.354   3.804 -0.2302  0.4686 -0.8102
  171SAPE  C21019279   2.844   6.413   3.959 -0.6321  0.5306 -0.1097
  171SAPE  H10R19280   2.748   6.454   3.998  1.0686  2.6338  2.0915
  171SAPE  H10S19281   2.923   6.491   3.960  0.5990 -0.6911  1.7524
  171SAPE  C21119282   2.896   6.302   4.051  0.1560  1.3730  0.6856
  171SAPE  H11R19283   2.926   6.202   4.017  1.6949  1.4049  1.8639
  171SAPE  C21219284   2.906   6.316   4.182 -0.0270  0.5489  0.5237
  171SAPE  H12R19285   2.941   6.227   4.237  0.9689  1.0087  0.6443
  171SAPE  C21319286   2.866   6.427   4.272 -0.5642 -0.8489  0.2653
  171SAPE  H13R19287   2.824   6.386   4.366  0.9926 -0.3692  1.2203
  171SAPE  H13S19288   2.783   6.492   4.238 -1.0384 -1.6828 -0.1914
  171SAPE  C21419289   2.997   6.503   4.294 -0.1074 -0.1898  0.0324
  171SAPE  H14R19290   3.056   6.515   4.202  0.9272 -1.6723  0.4724
  171SAPE  C21519291   3.053   6.562   4.399  0.2224 -0.1346 -0.5625
  171SAPE  H15R19292   3.159   6.590   4.406  0.3320 -0.7272  0.4083
  171SAPE  C21619293   2.975   6.567   4.534  0.6738  0.2248  0.1447
  171SAPE  H16R19294   2.868   6.539   4.530  0.1237  2.1758 -0.0568
  171SAPE  H16S19295   2.969   6.672   4.569 -0.9771  0.3505 -0.4334
  171SAPE  C21719296   3.040   6.486   4.650  0.0102  0.1867  0.6229
  171SAPE  H17R19297   3.150   6.488   4.635 -0.1429 -0.1624 -0.7338
  171SAPE  H17S19298   3.031   6.377   4.630  0.9544 -0.1975  2.1455
  171SAPE  C21819299   2.999   6.534   4.791 -0.1203 -0.4274 -0.3958
  171SAPE  H18R19300   2.890   6.515   4.798 -0.1666 -0.5200 -1.2799
  171SAPE  H18S19301   3.016   6.642   4.811  0.9869 -0.6438 -0.0810
  171SAPE  C21919302   3.065   6.454   4.902  0.3308  0.3514  0.4822
  171SAPE  H19R19303   3.174   6.472   4.894  0.0264  1.6240 -1.6294
  171SAPE  H19S19304   3.048   6.345   4.889  2.5287 -0.0935  0.9565
  171SAPE  C22019305   3.014   6.491   5.038 -0.3867  0.8645 -0.4950
  171SAPE  H20R19306   2.909   6.460   5.058  0.2235  0.9199  3.4605
  171SAPE  H20S19307   3.028   6.599   5.058  1.6146  0.3082  1.4576
  171SAPE  H20T19308   3.065   6.428   5.114 -0.4887  0.3228 -0.8686
  171SAPE   C3319309   3.219   7.133   3.317 -0.1924 -0.9014 -0.4977
  171SAPE   H3X19310   3.147   7.081   3.250 -0.4889  0.6644 -1.4412
  171SAPE   H3Y19311   3.162   7.204   3.381 -0.5267 -1.8097  0.2351
  171SAPE   C3419312   3.284   7.051   3.429 -0.3633 -0.0029 -0.7129
  171SAPE   H4X19313   3.367   7.120   3.455 -0.5965  0.9601 -2.3391
  171SAPE   H4Y19314   3.329   6.960   3.383  0.8593 -0.5568  1.4678
  171SAPE   C3519315   3.192   7.011   3.546 -0.5007 -0.0331 -0.1678
  171SAPE   H5X19316   3.102   6.962   3.505  0.0800 -1.1434 -0.1525
  171SAPE   H5Y19317   3.170   7.109   3.594  1.3975 -0.8440  2.6073
  171SAPE   C3619318   3.267   6.932   3.661  1.1109 -0.2674  0.1261
  171SAPE   H6X19319   3.362   6.989   3.673  0.4772  0.4505  2.1876
  171SAPE   H6Y19320   3.288   6.824   3.644 -2.6644 -1.0853 -0.1617
  171SAPE   C3719321   3.198   6.951   3.797  0.4304 -0.5008  0.1551
  171SAPE   H7X19322   3.088   6.942   3.786 -0.0953 -0.1763  3.7985
  171SAPE   H7Y19323   3.217   7.049   3.846 -1.5641 -0.0325  0.0694
  171SAPE   C3819324   3.254   6.846   3.898 -0.0757  0.3787  0.1159
  171SAPE   H8X19325   3.357   6.831   3.859  0.1584 -0.4542  1.0238
  171SAPE   H8Y19326   3.204   6.747   3.895 -1.5038  1.0943 -1.3974
  171SAPE   C3919327   3.266   6.903   4.039  0.2972 -0.1135  0.2938
  171SAPE   H9X19328   3.347   6.978   4.046  1.9889 -1.6971 -1.4558
  171SAPE   H9Y19329   3.307   6.817   4.095  0.0260  0.3769  1.2803
  171SAPE  C31019330   3.130   6.934   4.100  0.3728  0.7048  0.3209
  171SAPE  H10X19331   3.084   6.833   4.105  0.4761  0.2331 -4.1368
  171SAPE  H10Y19332   3.073   6.996   4.027  0.0135  0.3055  0.2616
  171SAPE  C31119333   3.147   7.004   4.232  0.1870 -0.1435 -0.2341
  171SAPE  H11X19334   3.051   7.036   4.280  1.3023  0.3199  1.7872
  171SAPE  H11Y19335   3.193   7.104   4.219  0.2477  0.1247  1.7091
  171SAPE  C31219336   3.210   6.926   4.342 -0.1710  0.0821  0.6618
  171SAPE  H12X19337   3.316   6.904   4.316 -0.4471 -0.5371  0.0330
  171SAPE  H12Y19338   3.160   6.827   4.345  1.7271 -0.9862 -0.6474
  171SAPE  C31319339   3.200   6.998   4.477  0.2285  0.2472 -0.4726
  171SAPE  H13X19340   3.094   7.022   4.497  0.5034 -1.1359  3.2355
  171SAPE  H13Y19341   3.262   7.091   4.471 -0.6239  0.7537 -2.2343
  171SAPE  C31419342   3.255   6.904   4.585  0.9193  0.5045 -0.4816
  171SAPE  H14X19343   3.364   6.888   4.578  0.5708 -1.7584 -1.6525
  171SAPE  H14Y19344   3.205   6.806   4.570  0.6422  0.5309  0.2250
  171SAPE  C31519345   3.201   6.928   4.726 -0.5345 -0.5518  0.3938
  171SAPE  H15X19346   3.095   6.958   4.720 -0.4364 -0.4299 -0.9900
  171SAPE  H15Y19347   3.263   7.011   4.765  0.2962 -1.3065  0.7382
  171SAPE  C31619348   3.253   6.822   4.822  0.3155  0.3835  1.0178
  171SAPE  H16X19349   3.364   6.814   4.827  0.5346  1.2806 -1.2319
  171SAPE  H16Y19350   3.204   6.731   4.782 -0.5854  1.6182 -0.8177
  171SAPE  C31719351   3.207   6.850   4.965 -0.2850  0.3833  0.5556
  171SAPE  H17X19352   3.101   6.822   4.986  0.4355 -0.8852  2.7514
  171SAPE  H17Y19353   3.213   6.959   4.989  0.6611  0.8030 -1.4254
  171SAPE  C31819354   3.302   6.794   5.074  0.0619 -0.0981  0.0827
  171SAPE  H18X19355   3.394   6.857   5.084 -0.5451  0.6322  1.3751
  171SAPE  H18Y19356   3.323   6.687   5.052 -0.7526  0.0122 -1.3387
  171SAPE  H18Z19357   3.248   6.801   5.171  2.5576 -0.2168  1.5764
  172SAPE     N19358   4.354   1.206   3.156 -0.1456  0.0555 -0.3994
  172SAPE   HN119359   4.402   1.262   3.082  0.3888  0.4889  0.2575
  172SAPE   HN219360   4.378   1.105   3.148  0.3514  0.0415  0.9450
  172SAPE   HN319361   4.256   1.220   3.125 -0.9449 -1.5550  1.2223
  172SAPE   C1219362   4.388   1.266   3.293 -0.2749  0.0893 -0.0674
  172SAPE  H12A19363   4.402   1.184   3.367  0.1720  0.6837  0.5176
  172SAPE  H12B19364   4.296   1.324   3.315 -0.9872 -1.0851  0.1381
  172SAPE   C1119365   4.503   1.365   3.294  0.5472 -0.7994 -0.3475
  172SAPE  H11A19366   4.487   1.412   3.394 -1.2519 -0.2277 -0.8743
  172SAPE  H11B19367   4.498   1.439   3.211  0.2121  0.9043  1.1234
  172SAPE     P19368   4.756   1.356   3.338  0.3175  0.1553  0.5875
  172SAPE   O1319369   4.873   1.316   3.260  0.0689 -0.6589  0.1564
  172SAPE   O1419370   4.739   1.496   3.349 -0.3168 -0.0050  0.7089
  172SAPE   O1219371   4.625   1.291   3.284  0.6477  0.4805  0.3475
  172SAPE   O1119372   4.769   1.299   3.490 -0.5464 -0.3899  0.0686
  172SAPE    C119373   4.688   1.190   3.537  0.0302 -0.3442 -0.8769
  172SAPE    HA19374   4.644   1.127   3.457  0.6911 -1.1472 -0.6244
  172SAPE    HB19375   4.757   1.114   3.579  0.7552  0.7471 -0.0413
  172SAPE    C219376   4.583   1.234   3.642  0.2866 -0.2817 -0.2783
  172SAPE    HS19377   4.520   1.310   3.591 -0.3218 -0.6863 -0.1532
  172SAPE   O2119378   4.650   1.314   3.752 -0.2342 -0.2070  0.3011
  172SAPE   C2119379   4.574   1.409   3.809 -0.1930  0.1259  0.5925
  172SAPE   O2219380   4.462   1.441   3.770 -0.2224 -0.0185 -0.2188
  172SAPE   C2219381   4.644   1.477   3.927 -0.3400  0.0270 -0.2668
  172SAPE   H2R19382   4.710   1.402   3.975 -0.2197  1.1930  1.5255
  172SAPE   H2S19383   4.712   1.553   3.884 -1.2625 -0.2799 -2.4026
  172SAPE    C319384   4.507   1.116   3.702 -0.0374  0.1167  0.3185
  172SAPE    HX19385   4.444   1.069   3.624  0.0418  1.7321 -0.7591
  172SAPE    HY19386   4.440   1.157   3.780 -0.1106  0.1193  0.2542
  172SAPE   O3119387   4.593   1.013   3.753 -0.3259  0.3414 -0.2072
  172SAPE   C3119388   4.610   1.020   3.880 -0.8437 -0.5664 -0.5690
  172SAPE   O3219389   4.591   1.116   3.954  0.0562  0.0898  0.1762
  172SAPE   C3219390   4.688   0.894   3.928  1.3546 -0.3278 -0.5198
  172SAPE   H2X19391   4.788   0.906   3.881  0.7334 -0.7581 -2.0265
  172SAPE   H2Y19392   4.638   0.803   3.887  2.1061 -0.7181 -0.5785
  172SAPE   C2319393   4.549   1.529   4.027  0.2691  0.2734  0.2767
  172SAPE   H3R19394   4.472   1.591   3.978 -0.3174  0.2092  1.0930
  172SAPE   H3S19395   4.594   1.603   4.097 -0.8065  1.8171 -0.6187
  172SAPE   C2419396   4.475   1.425   4.123  0.2389 -0.0383  0.4779
  172SAPE   H4R19397   4.418   1.357   4.056  0.8736  0.5685 -0.7107
  172SAPE   H4S19398   4.399   1.482   4.183 -0.2493 -2.0587  1.8809
  172SAPE   C2519399   4.567   1.353   4.211  0.8679  0.4052 -0.4839
  172SAPE   H5R19400   4.614   1.266   4.163 -1.8363 -0.3804 -1.9433
  172SAPE   C2619401   4.608   1.393   4.331  0.4096  0.3529  0.0207
  172SAPE   H6R19402   4.672   1.326   4.390  1.7096 -1.2763 -3.0069
  172SAPE   C2719403   4.561   1.518   4.393  0.1972 -0.3877 -0.0957
  172SAPE   H7R19404   4.487   1.494   4.473 -1.0357  1.7832 -0.5210
  172SAPE   H7S19405   4.507   1.589   4.326 -1.4926  1.2279  2.7885
  172SAPE   C2819406   4.676   1.600   4.444  0.4404  0.2071  0.2873
  172SAPE   H8R19407   4.726   1.663   4.370 -1.4948 -0.0189 -1.3060
  172SAPE   C2919408   4.724   1.586   4.569 -0.2188 -0.0166 -0.1017
  172SAPE   H9R19409   4.813   1.646   4.593  0.0692 -0.4747 -0.0138
  172SAPE  C21019410   4.661   1.491   4.674 -0.5864 -0.2505 -0.4371
  172SAPE  H10R19411   4.706   1.389   4.662  0.6015  0.1090  0.7579
  172SAPE  H10S19412   4.553   1.472   4.659 -0.7121 -0.5175  0.7087
  172SAPE  C21119413   4.684   1.553   4.814 -0.5748  0.5525 -0.2205
  172SAPE  H11R19414   4.754   1.639   4.813  1.8013 -1.2799 -0.4213
  172SAPE  C21219415   4.628   1.523   4.932 -0.5385  1.0618 -0.6695
  172SAPE  H12R19416   4.654   1.583   5.021  0.1388  1.1545 -0.9187
  172SAPE  C21319417   4.509   1.425   4.947 -0.0992 -0.1481  0.6227
  172SAPE  H13R19418   4.520   1.340   4.875 -2.0125  1.8506 -2.2240
  172SAPE  H13S19419   4.412   1.477   4.936 -0.7799 -1.0991  1.8782
  172SAPE  C21419420   4.514   1.360   5.080  0.6415  0.0970 -0.0705
  172SAPE  H14R19421   4.576   1.269   5.082  0.1999 -0.3067 -2.4955
  172SAPE  C21519422   4.450   1.398   5.195 -0.5596 -0.4879 -0.2857
  172SAPE  H15R19423   4.466   1.339   5.286  1.2987  0.0329 -0.2294
  172SAPE  C21619424   4.360   1.514   5.209  0.1709  0.7299 -0.5205
  172SAPE  H16R19425   4.262   1.494   5.161 -0.2624  1.1720  0.1718
  172SAPE  H16S19426   4.405   1.600   5.154  1.8329  0.2731  0.0613
  172SAPE  C21719427   4.325   1.557   5.353 -0.0330  0.1540  0.2435
  172SAPE  H17R19428   4.283   1.659   5.341 -0.9706 -0.0948  1.2430
  172SAPE  H17S19429   4.416   1.564   5.417 -0.3705  1.3704  0.6169
  172SAPE  C21819430   4.212   1.480   5.415  0.9581 -0.1287  0.4297
  172SAPE  H18R19431   4.132   1.458   5.341 -1.0581  1.4804  1.9972
  172SAPE  H18S19432   4.160   1.547   5.487 -0.4775 -0.9731  0.2246
  172SAPE  C21919433   4.245   1.335   5.471  0.6602 -0.4230 -0.4907
  172SAPE  H19R19434   4.339   1.351   5.527 -1.1385  3.2378  1.8924
  172SAPE  H19S19435   4.269   1.270   5.384 -0.7201 -2.7189  0.7381
  172SAPE  C22019436   4.126   1.274   5.547 -0.4617 -0.7873  0.1631
  172SAPE  H20R19437   4.078   1.218   5.464  0.5256  1.0676 -1.7370
  172SAPE  H20S19438   4.080   1.355   5.608  1.7090 -1.1926  2.5414
  172SAPE  H20T19439   4.168   1.191   5.608  0.7124 -0.8236 -0.6594
  172SAPE   C3319440   4.711   0.898   4.081 -0.3662 -0.2853 -0.5021
  172SAPE   H3X19441   4.783   0.973   4.121 -2.2529 -0.0329  2.7623
  172SAPE   H3Y19442   4.757   0.801   4.112 -2.0595 -1.1013 -0.4355
  172SAPE   C3419443   4.586   0.903   4.170  0.6148  0.1878  1.0849
  172SAPE   H4X19444   4.515   0.832   4.121  1.5260  0.4281 -0.6810
  172SAPE   H4Y19445   4.553   1.009   4.170  0.4307  0.1719  3.2442
  172SAPE   C3519446   4.596   0.871   4.316  0.0305  0.5861  0.0790
  172SAPE   H5X19447   4.616   0.763   4.335 -0.6992  0.4906  0.3271
  172SAPE   H5Y19448   4.499   0.891   4.366  0.6893  1.9615  0.8507
  172SAPE   C3619449   4.704   0.950   4.387 -0.1783 -0.4324 -0.4111
  172SAPE   H6X19450   4.683   1.057   4.364  0.5075 -0.6549 -2.2565
  172SAPE   H6Y19451   4.808   0.927   4.357 -0.5561 -2.4150 -0.3271
  172SAPE   C3719452   4.686   0.945   4.536  0.2186 -0.0626 -0.1208
  172SAPE   H7X19453   4.713   0.840   4.561 -0.7269 -0.0963  0.8161
  172SAPE   H7Y19454   4.582   0.970   4.564  0.4834  0.1495  0.6864
  172SAPE   C3819455   4.776   1.051   4.599 -0.3418 -0.4076  0.0343
  172SAPE   H8X19456   4.745   1.152   4.564  1.7558  0.1156 -0.4577
  172SAPE   H8Y19457   4.879   1.045   4.558  0.0793  1.3054  0.7243
  172SAPE   C3919458   4.770   1.043   4.756 -0.2266  0.6746 -0.7060
  172SAPE   H9X19459   4.809   0.943   4.785 -1.3473  0.5149  0.3316
  172SAPE   H9Y19460   4.663   1.030   4.784 -0.2197  1.4754 -0.2927
  172SAPE  C31019461   4.835   1.171   4.813 -0.5356 -0.2586 -0.5115
  172SAPE  H10X19462   4.768   1.259   4.817  1.0060  0.9142  0.8188
  172SAPE  H10Y19463   4.931   1.198   4.763  0.1009 -1.0981  0.2053
  172SAPE  C31119464   4.870   1.160   4.968 -0.2022  0.3478  0.4010
  172SAPE  H11X19465   4.954   1.090   4.988  0.3543  1.1238  0.8269
  172SAPE  H11Y19466   4.778   1.114   5.010 -0.9806  1.7144  0.2477
  172SAPE  C31219467   4.906   1.298   5.029 -0.3106  0.2742  0.6017
  172SAPE  H12X19468   4.827   1.364   4.989 -0.0571  0.1879 -0.0466
  172SAPE  H12Y19469   4.998   1.327   4.974 -0.9594  0.3576 -0.4707
  172SAPE  C31319470   4.914   1.295   5.179  0.0916  0.1698  0.8321
  172SAPE  H13X19471   4.986   1.218   5.214  1.3227  0.5625 -0.7481
  172SAPE  H13Y19472   4.815   1.266   5.221 -0.7591  0.8811 -0.6265
  172SAPE  C31419473   4.946   1.428   5.242 -0.6774  0.2186 -0.6489
  172SAPE  H14X19474   4.895   1.515   5.194  0.0024 -0.2679 -2.3251
  172SAPE  H14Y19475   5.052   1.454   5.226 -0.4746 -0.8591 -1.1031
  172SAPE  C31519476   4.908   1.446   5.394 -0.3351  0.3975 -0.0375
  172SAPE  H15X19477   4.951   1.356   5.443  2.2494  0.5899 -1.7340
  172SAPE  H15Y19478   4.799   1.459   5.407 -0.3855  0.6898 -0.7136
  172SAPE  C31619479   4.969   1.566   5.470 -0.0776  1.1346  0.7042
  172SAPE  H16X19480   4.955   1.662   5.416 -0.4536  1.6057  1.6078
  172SAPE  H16Y19481   5.080   1.554   5.472  0.1275  2.5979 -0.3009
  172SAPE  C31719482   4.905   1.570   5.605 -0.5275  0.7388  0.1582
  172SAPE  H17X19483   4.909   1.470   5.652 -1.2793  0.3538 -0.5822
  172SAPE  H17Y19484   4.796   1.589   5.595 -0.4496  0.1839 -2.7385
  172SAPE  C31819485   4.978   1.679   5.684  0.2660 -0.2944 -0.3965
  172SAPE  H18X19486   4.934   1.711   5.780  1.7194 -1.0547  0.5530
  172SAPE  H18Y19487   4.974   1.770   5.620 -1.4831 -0.7259 -0.9664
  172SAPE  H18Z19488   5.083   1.645   5.699  0.2068  0.0802  0.9567
  173SLPC     N19489   3.888   2.777   8.018  0.4562 -0.1559 -0.3554
  173SLPC   C1319490   3.877   2.875   7.908 -0.4697 -0.2443 -0.7311
  173SLPC  H13A19491   3.891   2.825   7.813  1.4790  1.3462 -1.3270
  173SLPC  H13B19492   3.779   2.919   7.903  0.5490  2.5719  1.7579
  173SLPC  H13C19493   3.951   2.953   7.915  1.0975 -1.8013  1.9037
  173SLPC   C1419494   3.867   2.846   8.147  0.0666 -0.2371  0.0708
  173SLPC  H14A19495   3.922   2.939   8.156  1.0296 -0.7716 -0.1676
  173SLPC  H14B19496   3.766   2.883   8.141 -0.3800 -1.6014 -3.0749
  173SLPC  H14C19497   3.898   2.790   8.233  2.6211  0.6160 -0.1911
  173SLPC   C1519498   4.033   2.733   8.014 -0.7125  0.6436  0.4502
  173SLPC  H15A19499   4.068   2.711   7.914  2.2367 -1.3082  1.7703
  173SLPC  H15B19500   4.096   2.815   8.045 -1.5202  0.1042  3.9216
  173SLPC  H15C19501   4.064   2.645   8.068  1.1650  0.2913 -1.0798
  173SLPC   C1219502   3.798   2.665   8.010 -0.2565  0.8594  0.2612
  173SLPC  H12A19503   3.830   2.592   8.083  1.0491  0.8443 -0.2976
  173SLPC  H12B19504   3.822   2.613   7.918  0.9244  0.8607  0.5491
  173SLPC   C1119505   3.639   2.690   8.011 -1.0710  0.8079  0.2032
  173SLPC  H11A19506   3.600   2.744   8.100  1.8256  0.4894  1.7796
  173SLPC  H11B19507   3.588   2.593   8.029  1.0803 -0.1784  1.3148
  173SLPC     P19508   3.593   2.664   7.759 -0.0735  0.2800  0.0214
  173SLPC   O1319509   3.649   2.531   7.780 -0.4879  0.7630  0.6354
  173SLPC   O1419510   3.455   2.672   7.696  0.5901 -0.0037 -0.3169
  173SLPC   O1219511   3.598   2.756   7.893  0.4321 -0.0970  0.6224
  173SLPC   O1119512   3.702   2.745   7.677  0.7490  0.5261  0.0305
  173SLPC    C119513   3.649   2.860   7.613  0.2778 -0.5216 -1.1501
  173SLPC    HA19514   3.573   2.920   7.667 -0.2927 -3.1324  1.1394
  173SLPC    HB19515   3.737   2.925   7.590  1.0550 -1.7090 -1.6322
  173SLPC    C219516   3.600   2.827   7.467  0.0522  0.2516 -0.2673
  173SLPC    HS19517   3.509   2.764   7.478  0.5245 -0.5299 -0.6944
  173SLPC   O2119518   3.709   2.753   7.410  0.3160  0.0973  0.1921
  173SLPC   C2119519   3.670   2.663   7.319 -0.2895  0.3500  0.6804
  173SLPC   O2219520   3.555   2.616   7.300 -0.1866 -0.6004 -0.1631
  173SLPC   C2219521   3.798   2.619   7.245 -0.0204  0.4810 -0.0202
  173SLPC   H2R19522   3.848   2.714   7.215 -0.8111  0.5784 -1.1281
  173SLPC   H2S19523   3.858   2.556   7.314  0.6596  1.4066  0.2472
  173SLPC    C319524   3.574   2.958   7.390  0.1820 -0.7530 -0.2548
  173SLPC    HX19525   3.667   3.017   7.407 -0.1483 -0.6797  1.5074
  173SLPC    HY19526   3.497   3.016   7.445  2.1153  2.3308 -0.5340
  173SLPC   O3119527   3.541   2.934   7.251 -0.2017 -0.3836  0.7698
  173SLPC   C3119528   3.409   2.906   7.229  0.1109 -1.1660 -0.1095
  173SLPC   O3219529   3.321   2.891   7.312 -0.5270  0.9382 -0.0166
  173SLPC   C3219530   3.378   2.919   7.082 -0.4022  0.5120  0.1908
  173SLPC   H2X19531   3.407   3.021   7.049  2.5219 -0.3986 -0.3549
  173SLPC   H2Y19532   3.270   2.907   7.060 -0.6455  0.3699  1.3912
  173SLPC   C2319533   3.777   2.531   7.115 -0.1282 -0.4173 -0.1982
  173SLPC   H3R19534   3.687   2.578   7.069  0.8837  2.1623  0.2487
  173SLPC   H3S19535   3.765   2.424   7.142  0.2982 -0.7043 -1.1094
  173SLPC   C2419536   3.889   2.551   7.009 -0.3214  0.3856  0.6964
  173SLPC   H4R19537   3.983   2.507   7.048  0.5066 -0.4894 -2.0819
  173SLPC   H4S19538   3.907   2.661   7.000  1.5576  0.0914  0.4111
  173SLPC   C2519539   3.850   2.487   6.876  0.0554 -0.9594  0.6735
  173SLPC   H5R19540   3.767   2.544   6.831  2.0028  1.0837 -0.5475
  173SLPC   H5S19541   3.814   2.382   6.888 -2.1739 -0.5449 -1.6453
  173SLPC   C2619542   3.965   2.487   6.775  0.2271 -0.1198  0.0611
  173SLPC   H6R19543   4.048   2.445   6.837 -1.4553 -2.4273  0.8981
  173SLPC   H6S19544   3.998   2.590   6.751  1.1157  0.0120  1.6951
  173SLPC   C2719545   3.926   2.391   6.657 -0.8153  0.1160  0.6950
  173SLPC   H7R19546   3.828   2.419   6.612 -1.2470 -2.3376 -0.0283
  173SLPC   H7S19547   3.917   2.289   6.700 -1.1784  1.2429  3.4775
  173SLPC   C2819548   4.033   2.387   6.547  0.4840  0.3098 -0.6163
  173SLPC   H8R19549   4.119   2.329   6.587 -1.8201 -2.6649  0.5150
  173SLPC   H8S19550   4.069   2.492   6.546 -2.1280  1.3270  1.1911
  173SLPC   C2919551   3.975   2.317   6.421 -0.5676  0.7681 -0.1721
  173SLPC   H9R19552   3.953   2.210   6.427  1.0369  0.3645 -0.8859
  173SLPC  C21019553   3.984   2.361   6.294 -1.1431 -0.4702 -0.4410
  173SLPC  H10R19554   3.930   2.301   6.219 -0.1540 -3.7522  1.2849
  173SLPC  C21119555   4.002   2.507   6.261 -0.1910 -0.3454  1.1147
  173SLPC  H11R19556   4.107   2.528   6.232 -0.9372  0.8489 -0.8910
  173SLPC  H11S19557   3.996   2.565   6.355  3.7722 -0.4457  1.5727
  173SLPC  C21219558   3.900   2.561   6.161 -0.0744  0.3982  0.1790
  173SLPC  H12R19559   3.797   2.575   6.196 -0.4424 -0.1371 -0.6609
  173SLPC  C21319560   3.918   2.583   6.028 -0.1329  0.3049 -0.0188
  173SLPC  H13R19561   3.833   2.610   5.964 -0.0485 -2.0092 -1.2179
  173SLPC  C21419562   4.049   2.572   5.952  0.8430  0.3412  0.0715
  173SLPC  H14R19563   4.065   2.463   5.940 -0.1309  0.1246  0.5999
  173SLPC  H14S19564   4.133   2.620   6.006  0.5113 -1.0241  1.8818
  173SLPC  C21519565   4.036   2.636   5.817 -0.1362 -0.0806 -0.0205
  173SLPC  H15R19566   3.949   2.598   5.759 -1.1717  2.4957 -0.2940
  173SLPC  H15S19567   4.131   2.622   5.760 -1.0454  1.7730 -2.1245
  173SLPC  C21619568   4.036   2.793   5.815  0.4269 -0.3717  0.1174
  173SLPC  H16R19569   4.105   2.831   5.894  2.6073 -3.4459 -0.1107
  173SLPC  H16S19570   3.936   2.832   5.843  0.3071 -1.1131  0.7228
  173SLPC  C21719571   4.077   2.850   5.677 -0.4611  0.0686 -0.9424
  173SLPC  H17R19572   4.185   2.826   5.667 -0.0676  1.2428  0.1765
  173SLPC  H17S19573   4.079   2.959   5.701  1.5194 -0.5163  2.1982
  173SLPC  C21819574   3.999   2.824   5.554  0.4572 -0.6140  0.2191
  173SLPC  H18R19575   4.002   2.716   5.528 -1.9724 -0.8499  0.6854
  173SLPC  H18S19576   4.025   2.896   5.473  0.2969 -0.3457  0.4033
  173SLPC  H18T19577   3.890   2.832   5.573  0.2275  0.3776 -1.3166
  173SLPC   C3319578   3.460   2.816   7.008  0.0716  0.3989  0.0629
  173SLPC   H3X19579   3.435   2.714   7.043  0.2526  0.3885  0.1626
  173SLPC   H3Y19580   3.570   2.814   7.023  0.5003 -2.1678 -2.4546
  173SLPC   C3419581   3.437   2.833   6.857  0.0546  0.1557  0.3215
  173SLPC   H4X19582   3.476   2.930   6.822 -0.0491 -0.1170 -0.5601
  173SLPC   H4Y19583   3.326   2.830   6.847  0.1778 -1.2840 -1.0246
  173SLPC   C3519584   3.490   2.727   6.767  0.3222 -0.0655  0.7076
  173SLPC   H5X19585   3.452   2.634   6.813  1.0642 -0.1199  1.2286
  173SLPC   H5Y19586   3.601   2.722   6.775  0.5758  0.4846 -1.5691
  173SLPC   C3619587   3.449   2.730   6.619  0.1323  0.2208  0.1209
  173SLPC   H6X19588   3.339   2.715   6.613  0.5230 -2.9451 -0.7455
  173SLPC   H6Y19589   3.489   2.641   6.566 -0.5749 -0.0116 -0.0287
  173SLPC   C3719590   3.498   2.863   6.551 -0.8272  0.2748 -0.6706
  173SLPC   H7X19591   3.609   2.865   6.564 -0.8669 -0.7275 -0.0625
  173SLPC   H7Y19592   3.458   2.952   6.603  1.4468 -0.8171  3.3664
  173SLPC   C3819593   3.477   2.878   6.399 -0.3336  0.3196 -0.9338
  173SLPC   H8X19594   3.531   2.969   6.366  1.7195 -0.1409  0.8831
  173SLPC   H8Y19595   3.368   2.888   6.380 -0.7826 -2.2747 -0.1680
  173SLPC   C3919596   3.533   2.763   6.312  0.0034 -0.6219  0.2432
  173SLPC   H9X19597   3.503   2.665   6.356 -0.4236 -0.0792  1.1770
  173SLPC   H9Y19598   3.644   2.766   6.314 -0.0306  0.4540  0.7762
  173SLPC  C31019599   3.506   2.764   6.157 -0.3283  0.2370  0.2681
  173SLPC  H10X19600   3.405   2.808   6.144 -1.1184 -1.6560 -0.3472
  173SLPC  H10Y19601   3.526   2.663   6.116  1.2904  0.5476  0.2198
  173SLPC  C31119602   3.600   2.861   6.094 -0.5749 -0.4153  0.5548
  173SLPC  H11X19603   3.702   2.819   6.088 -0.8989 -1.0113 -1.1202
  173SLPC  H11Y19604   3.602   2.955   6.154 -2.1551 -0.0838  0.1377
  173SLPC  C31219605   3.574   2.906   5.955 -0.1925  0.0531  0.2689
  173SLPC  H12X19606   3.628   2.999   5.924  2.9033 -2.2159 -1.6916
  173SLPC  H12Y19607   3.465   2.915   5.937 -0.1276 -0.3888 -0.3929
  173SLPC  C31319608   3.618   2.801   5.847  0.4955  1.3157  0.1182
  173SLPC  H13X19609   3.602   2.694   5.873  0.7806  0.6440 -2.2229
  173SLPC  H13Y19610   3.724   2.822   5.821  1.8103 -1.9808  2.1233
  173SLPC  C31419611   3.528   2.806   5.714  0.5177 -0.1572  0.3574
  173SLPC  H14X19612   3.514   2.912   5.684  0.2735 -0.1523  0.4827
  173SLPC  H14Y19613   3.429   2.759   5.734  1.5632 -2.1038  1.1995
  173SLPC  C31519614   3.601   2.740   5.598 -0.3779  0.2579 -0.4356
  173SLPC  H15X19615   3.615   2.636   5.633 -0.7236  0.8312  1.5223
  173SLPC  H15Y19616   3.698   2.792   5.585  1.0702 -2.0689  0.4156
  173SLPC  C31619617   3.529   2.755   5.462 -0.1752  0.1526  0.7050
  173SLPC  H16X19618   3.527   2.858   5.420  1.6425 -0.2731 -0.5737
  173SLPC  H16Y19619   3.430   2.706   5.458  1.3373 -3.2453  0.8554
  173SLPC  C31719620   3.611   2.681   5.343  0.0861 -0.3822  0.1521
  173SLPC  H17X19621   3.544   2.685   5.255 -2.4461 -1.2108  1.9366
  173SLPC  H17Y19622   3.613   2.578   5.384  0.3394 -0.1184  0.8115
  173SLPC  C31819623   3.751   2.738   5.322 -1.0054  0.1522  0.5509
  173SLPC  H18X19624   3.804   2.701   5.233 -1.4365 -1.2316  0.8536
  173SLPC  H18Y19625   3.820   2.712   5.406  0.0643 -0.3449 -0.4645
  173SLPC  H18Z19626   3.759   2.849   5.315 -2.1815  0.1811 -0.7327
  174SLPC     N19627   0.030   2.280   7.972 -0.2766  0.1676  0.2977
  174SLPC   C1319628  -0.091   2.328   8.031  0.1318 -0.0418  0.0378
  174SLPC  H13A19629  -0.131   2.423   7.996  1.0494  0.7102  0.9610
  174SLPC  H13B19630  -0.166   2.250   8.029  1.4387 -1.3257  0.2839
  174SLPC  H13C19631  -0.074   2.361   8.133 -1.5835  0.1687  0.2879
  174SLPC   C1419632   0.078   2.150   8.040  0.9169 -0.0897  0.5474
  174SLPC  H14A19633   0.177   2.117   8.013  0.8599 -0.2631  0.5457
  174SLPC  H14B19634   0.067   2.164   8.147 -0.7937  1.5903  0.2008
  174SLPC  H14C19635   0.015   2.071   8.002  0.0695 -0.1945  2.0692
  174SLPC   C1519636   0.140   2.372   7.991 -0.5373 -0.7540 -0.0583
  174SLPC  H15A19637   0.151   2.408   8.092  1.8938 -1.6531  0.0436
  174SLPC  H15B19638   0.233   2.325   7.963 -0.4386 -0.7238  0.2185
  174SLPC  H15C19639   0.133   2.457   7.925  1.0039 -0.7765 -0.2829
  174SLPC   C1219640   0.014   2.261   7.815  0.0829  0.0831 -0.2833
  174SLPC  H12A19641   0.113   2.238   7.777 -0.2368 -2.0969  0.0825
  174SLPC  H12B19642  -0.019   2.355   7.773  2.4282  0.9892 -0.2577
  174SLPC   C1119643  -0.081   2.151   7.759 -1.2980  0.0290  0.1444
  174SLPC  H11A19644  -0.081   2.169   7.649  1.2551  2.4896  0.4042
  174SLPC  H11B19645  -0.182   2.168   7.801 -0.5801  3.0651  0.8903
  174SLPC     P19646  -0.128   1.911   7.838  0.6234  0.2592 -0.6884
  174SLPC   O1319647  -0.042   1.795   7.865 -0.0659 -0.0078 -0.2468
  174SLPC   O1419648  -0.208   1.957   7.958 -0.4568  0.0027  0.0781
  174SLPC   O1219649  -0.032   2.021   7.782 -0.3555  0.3671 -0.0301
  174SLPC   O1119650  -0.224   1.865   7.726  0.6308  0.9240 -0.2495
  174SLPC    C119651  -0.184   1.837   7.595 -0.7211  0.0871  0.0847
  174SLPC    HA19652  -0.275   1.845   7.533 -1.2834  0.2657  0.9153
  174SLPC    HB19653  -0.109   1.911   7.558 -0.2589 -0.8110 -0.8144
  174SLPC    C219654  -0.122   1.699   7.565  0.6481  0.1796 -0.9659
  174SLPC    HS19655  -0.047   1.681   7.645 -1.7269 -0.0080  1.3604
  174SLPC   O2119656  -0.067   1.709   7.435  0.6075 -0.6386  0.0458
  174SLPC   C2119657   0.039   1.626   7.408 -0.0171  0.1463 -0.3809
  174SLPC   O2219658   0.081   1.540   7.483  0.2544  0.0012  0.1425
  174SLPC   C2219659   0.082   1.661   7.265 -0.0182  0.1253  0.6811
  174SLPC   H2R19660   0.002   1.712   7.207  0.5783 -0.2309 -0.4807
  174SLPC   H2S19661   0.166   1.730   7.287  1.0332 -1.3010  1.2783
  174SLPC    C319662  -0.234   1.578   7.593 -0.4118 -0.4153  0.5766
  174SLPC    HX19663  -0.264   1.589   7.700 -1.0156 -0.1233  0.3822
  174SLPC    HY19664  -0.172   1.489   7.570 -2.5317 -1.5722 -0.9195
  174SLPC   O3119665  -0.337   1.594   7.499 -0.4500  0.5332 -0.1980
  174SLPC   C3119666  -0.464   1.613   7.545 -0.1188  0.2023  0.3565
  174SLPC   O3219667  -0.501   1.596   7.657  0.8605 -0.0868  0.1357
  174SLPC   C3219668  -0.548   1.664   7.435  0.2136 -0.0473 -0.1920
  174SLPC   H2X19669  -0.539   1.774   7.427  0.8785 -0.1217 -0.4491
  174SLPC   H2Y19670  -0.651   1.643   7.472  1.0096 -1.4655  1.3251
  174SLPC   C2319671   0.130   1.531   7.188  0.0731  0.3693  0.2058
  174SLPC   H3R19672   0.037   1.474   7.165 -0.0834  1.1954 -1.4028
  174SLPC   H3S19673   0.195   1.468   7.252  0.0877  0.5233  0.3439
  174SLPC   C2419674   0.190   1.561   7.057  0.1092  0.0409  0.1278
  174SLPC   H4R19675   0.242   1.475   7.009  0.0908 -0.0628  0.2918
  174SLPC   H4S19676   0.259   1.647   7.068  0.3434  0.0964 -1.4942
  174SLPC   C2519677   0.079   1.596   6.956  0.5352  0.2418  0.2688
  174SLPC   H5R19678  -0.005   1.662   6.989 -0.0681 -0.1018 -0.5429
  174SLPC   H5S19679   0.020   1.504   6.934  0.4697  0.3513 -0.0196
  174SLPC   C2619680   0.130   1.645   6.818 -0.7537  0.3824  0.0620
  174SLPC   H6R19681   0.190   1.565   6.769  0.1095  2.6139 -2.8079
  174SLPC   H6S19682   0.192   1.737   6.817  1.9062 -1.3080  0.2449
  174SLPC   C2719683   0.013   1.686   6.722 -0.3331 -0.4331 -1.2293
  174SLPC   H7R19684  -0.054   1.762   6.768 -1.1894 -1.7702 -0.2027
  174SLPC   H7S19685  -0.060   1.603   6.716 -1.5009  0.4489  0.0355
  174SLPC   C2819686   0.059   1.712   6.577  0.1672 -1.2503  1.0983
  174SLPC   H8R19687   0.108   1.621   6.537  0.6312 -1.5898  2.3874
  174SLPC   H8S19688   0.119   1.806   6.575 -2.7041  0.6961  0.0449
  174SLPC   C2919689  -0.046   1.751   6.481 -0.2755  0.7052 -0.2267
  174SLPC   H9R19690  -0.143   1.706   6.507 -0.1518 -0.1618 -1.1863
  174SLPC  C21019691  -0.035   1.810   6.361 -0.2768  0.2520 -0.3300
  174SLPC  H10R19692  -0.128   1.817   6.303 -0.3737  0.2427 -0.1768
  174SLPC  C21119693   0.084   1.873   6.296  0.3408  0.8059 -0.5601
  174SLPC  H11R19694   0.178   1.828   6.334 -0.7151 -1.6702 -0.6877
  174SLPC  H11S19695   0.088   1.973   6.346 -0.8743  0.3670  0.4892
  174SLPC  C21219696   0.083   1.897   6.146 -0.1413 -0.0481  0.0497
  174SLPC  H12R19697   0.147   1.825   6.092  0.4550 -0.9823  1.8932
  174SLPC  C21319698   0.013   1.994   6.075  0.9985  0.0676 -0.4404
  174SLPC  H13R19699   0.032   2.006   5.967 -1.5388 -0.7999 -1.0621
  174SLPC  C21419700  -0.083   2.098   6.124 -0.7485 -0.0917  0.3022
  174SLPC  H14R19701  -0.047   2.190   6.072 -1.0195 -0.0742  0.1410
  174SLPC  H14S19702  -0.083   2.111   6.235 -1.7736 -3.4027  0.7877
  174SLPC  C21519703  -0.227   2.073   6.073 -0.3071  0.3241 -0.0412
  174SLPC  H15R19704  -0.279   2.169   6.090 -0.0698  0.2423  1.3122
  174SLPC  H15S19705  -0.268   1.990   6.135 -2.6945  2.3918  1.3344
  174SLPC  C21619706  -0.253   2.045   5.922 -0.6505  0.1346 -0.0469
  174SLPC  H16R19707  -0.362   2.058   5.901 -0.8269 -0.7215  0.2928
  174SLPC  H16S19708  -0.222   1.939   5.911 -1.4799 -0.4354  2.4889
  174SLPC  C21719709  -0.180   2.133   5.825 -0.1030  0.2044 -0.2792
  174SLPC  H17R19710  -0.071   2.111   5.815 -0.1011  0.9334 -2.2859
  174SLPC  H17S19711  -0.169   2.234   5.870  0.8035  0.0229 -0.0710
  174SLPC  C21819712  -0.244   2.146   5.686 -0.5368 -0.8704  0.1021
  174SLPC  H18R19713  -0.355   2.144   5.696 -0.5308 -1.5459  0.0194
  174SLPC  H18S19714  -0.215   2.060   5.623 -0.8605  1.1660 -3.0686
  174SLPC  H18T19715  -0.204   2.236   5.633 -0.8778 -0.3990  0.6274
  174SLPC   C3319716  -0.516   1.601   7.299  0.3069 -0.1740  0.2622
  174SLPC   H3X19717  -0.501   1.491   7.306 -1.3782 -0.3654  1.3396
  174SLPC   H3Y19718  -0.414   1.634   7.270  0.1004  0.2801  0.0432
  174SLPC   C3419719  -0.603   1.644   7.175 -0.0619  0.3760  0.0681
  174SLPC   H4X19720  -0.607   1.754   7.166  0.2469  0.5133  1.3675
  174SLPC   H4Y19721  -0.701   1.593   7.190 -0.6675  1.2300 -0.8775
  174SLPC   C3519722  -0.543   1.580   7.046 -0.4646 -0.1374 -0.3298
  174SLPC   H5X19723  -0.448   1.635   7.029  0.8863 -1.5053  2.0125
  174SLPC   H5Y19724  -0.612   1.600   6.962 -1.4091 -0.5248  0.3303
  174SLPC   C3619725  -0.513   1.430   7.049 -0.1056  0.5283 -0.1393
  174SLPC   H6X19726  -0.607   1.374   7.068  0.6519 -0.8299 -0.2427
  174SLPC   H6Y19727  -0.441   1.405   7.130 -0.4695 -0.7128 -0.1805
  174SLPC   C3719728  -0.463   1.368   6.923  0.3451  0.1244  0.8923
  174SLPC   H7X19729  -0.530   1.370   6.835  3.6360 -0.2187 -1.8137
  174SLPC   H7Y19730  -0.448   1.265   6.961 -2.2024  0.1174  2.0958
  174SLPC   C3819731  -0.323   1.403   6.886 -0.5893 -0.4350  0.3354
  174SLPC   H8X19732  -0.267   1.380   6.980 -1.9703 -2.5078  0.7309
  174SLPC   H8Y19733  -0.313   1.509   6.856  1.6388 -0.7752 -0.2705
  174SLPC   C3919734  -0.256   1.329   6.771  0.5255 -0.5153  0.1839
  174SLPC   H9X19735  -0.289   1.223   6.777  0.2738 -0.5095 -0.8056
  174SLPC   H9Y19736  -0.149   1.347   6.795 -0.0812  1.0003  2.0035
  174SLPC  C31019737  -0.301   1.380   6.635  0.3094  0.3541  0.0284
  174SLPC  H10X19738  -0.296   1.491   6.636 -0.8187  0.4201  1.1255
  174SLPC  H10Y19739  -0.408   1.359   6.612  0.6718  0.7655 -2.2938
  174SLPC  C31119740  -0.212   1.334   6.519 -0.2252 -0.6869  1.1396
  174SLPC  H11X19741  -0.212   1.224   6.509 -3.9087 -0.6688 -0.6738
  174SLPC  H11Y19742  -0.109   1.359   6.551  0.7649 -0.7054 -1.7170
  174SLPC  C31219743  -0.239   1.421   6.391  0.0912 -0.3808 -0.2670
  174SLPC  H12X19744  -0.242   1.527   6.426  1.3497 -0.1118 -0.9044
  174SLPC  H12Y19745  -0.337   1.396   6.345  1.4623 -2.9792 -1.9859
  174SLPC  C31319746  -0.138   1.399   6.288 -1.0131  0.7457  0.2395
  174SLPC  H13X19747  -0.152   1.293   6.256 -0.8564  0.7399  0.1912
  174SLPC  H13Y19748  -0.037   1.416   6.330 -0.9019  0.3000  0.1592
  174SLPC  C31419749  -0.170   1.494   6.170  0.4305  0.3443 -0.0438
  174SLPC  H14X19750  -0.182   1.599   6.204 -0.3879 -0.0436  0.9300
  174SLPC  H14Y19751  -0.271   1.472   6.131  0.6159 -0.2840 -0.1866
  174SLPC  C31519752  -0.069   1.490   6.060 -0.4916 -0.1354 -0.1408
  174SLPC  H15X19753  -0.059   1.383   6.031 -1.0141 -0.8441  2.0956
  174SLPC  H15Y19754   0.025   1.535   6.099  0.5089 -0.9097 -1.5570
  174SLPC  C31619755  -0.097   1.578   5.933  0.2376  0.3297  0.8435
  174SLPC  H16X19756  -0.002   1.604   5.881 -0.2045  3.1921  1.2820
  174SLPC  H16Y19757  -0.141   1.676   5.962 -1.2493  0.0820 -0.4622
  174SLPC  C31719758  -0.179   1.499   5.834  0.6180 -1.1572  0.4708
  174SLPC  H17X19759  -0.284   1.487   5.866 -0.2251 -0.3291 -1.7819
  174SLPC  H17Y19760  -0.133   1.400   5.812 -0.1510 -1.2879 -0.5922
  174SLPC  C31819761  -0.189   1.570   5.696 -0.5210  0.4597  0.5236
  174SLPC  H18X19762  -0.221   1.500   5.616  0.8841  1.1484 -0.6873
  174SLPC  H18Y19763  -0.094   1.614   5.660  0.4504  0.1406  2.5634
  174SLPC  H18Z19764  -0.259   1.657   5.705  1.7152  2.8155 -2.5587
  175SLPC     N19765   3.004   5.474   7.818  0.3175  0.3582  0.1919
  175SLPC   C1319766   2.853   5.475   7.774 -0.2676  0.0276  0.1138
  175SLPC  H13A19767   2.839   5.392   7.706  0.6225  0.7549 -1.0069
  175SLPC  H13B19768   2.780   5.467   7.853 -1.8075  0.2312 -1.2096
  175SLPC  H13C19769   2.839   5.565   7.715  2.5822 -0.8908 -2.2059
  175SLPC   C1419770   3.029   5.363   7.912  0.1318  0.0472 -0.3512
  175SLPC  H14A19771   2.977   5.375   8.006  0.0984 -0.0277 -0.3600
  175SLPC  H14B19772   3.001   5.267   7.871  3.4918 -1.3743  0.3322
  175SLPC  H14C19773   3.133   5.356   7.942 -0.1552 -1.5190  0.3785
  175SLPC   C1519774   3.042   5.597   7.896 -0.0812 -0.0234  0.5621
  175SLPC  H15A19775   3.022   5.684   7.836  0.2329  0.1963  0.7723
  175SLPC  H15B19776   2.975   5.615   7.979  0.1311  1.3593  0.4445
  175SLPC  H15C19777   3.144   5.612   7.928  0.3147 -0.3751 -0.4872
  175SLPC   C1219778   3.097   5.458   7.696 -0.1218 -0.0140 -0.7693
  175SLPC  H12A19779   3.082   5.356   7.662 -1.1708  0.2490 -1.1109
  175SLPC  H12B19780   3.199   5.458   7.733 -0.9171 -0.5391  1.6236
  175SLPC   C1119781   3.095   5.557   7.578  0.2397 -0.8743  0.0283
  175SLPC  H11A19782   2.987   5.580   7.561  0.7998  2.0418  0.0453
  175SLPC  H11B19783   3.142   5.511   7.489 -0.2386 -2.8226  0.7234
  175SLPC     P19784   3.141   5.817   7.537 -0.1965  0.2033  0.2427
  175SLPC   O1319785   3.013   5.876   7.584 -0.1264 -0.2156 -0.0639
  175SLPC   O1419786   3.263   5.905   7.549  0.0157 -0.5181  0.3576
  175SLPC   O1219787   3.152   5.681   7.620  0.1627 -0.5695  0.5517
  175SLPC   O1119788   3.127   5.762   7.392 -0.3933  0.3845 -0.5081
  175SLPC    C119789   3.243   5.725   7.313  0.1821 -0.8179 -0.6954
  175SLPC    HA19790   3.317   5.808   7.304  1.0799 -1.5162  0.0980
  175SLPC    HB19791   3.304   5.647   7.362 -1.7874 -1.8603  0.1968
  175SLPC    C219792   3.211   5.665   7.174  0.1790 -0.5012  0.2186
  175SLPC    HS19793   3.306   5.642   7.121 -0.4928 -0.1551 -1.1980
  175SLPC   O2119794   3.125   5.756   7.100 -0.0289 -0.0919  0.0493
  175SLPC   C2119795   3.189   5.839   7.029  0.4317 -0.1621  0.0681
  175SLPC   O2219796   3.308   5.869   7.043 -0.0039 -0.1068  0.0308
  175SLPC   C2219797   3.097   5.887   6.919  0.0142  0.2390 -0.0231
  175SLPC   H2R19798   2.995   5.853   6.946  1.3326 -1.6377  3.0084
  175SLPC   H2S19799   3.117   5.996   6.906  2.5663 -0.2150 -0.5759
  175SLPC    C319800   3.134   5.532   7.182  0.9460  0.4658 -0.2737
  175SLPC    HX19801   3.041   5.558   7.238  0.0291  1.0590 -2.0002
  175SLPC    HY19802   3.189   5.467   7.254 -2.3254 -1.0286  1.0853
  175SLPC   O3119803   3.106   5.474   7.053 -0.6880 -0.1088 -0.2523
  175SLPC   C3119804   3.170   5.366   7.019  0.0318  0.1579 -0.6221
  175SLPC   O3219805   3.259   5.310   7.079 -0.2720 -0.0353 -0.0347
  175SLPC   C3219806   3.121   5.314   6.883 -0.1790  0.9492 -0.6585
  175SLPC   H2X19807   3.062   5.390   6.827 -0.5204  1.8884  0.8946
  175SLPC   H2Y19808   3.053   5.229   6.906 -0.2732  1.5691  1.6552
  175SLPC   C2319809   3.162   5.826   6.792  0.2858 -0.1580  0.5352
  175SLPC   H3R19810   3.143   5.716   6.798 -0.3534 -0.3006 -2.4764
  175SLPC   H3S19811   3.270   5.848   6.787  0.0812  0.5933 -0.9546
  175SLPC   C2419812   3.092   5.877   6.663 -0.0018 -0.0625  0.0000
  175SLPC   H4R19813   3.094   5.988   6.651 -0.6960  0.5484  4.0312
  175SLPC   H4S19814   2.986   5.851   6.684 -0.1554  0.9903  0.5879
  175SLPC   C2519815   3.123   5.798   6.541  0.3673  0.6069  0.2495
  175SLPC   H5R19816   3.052   5.811   6.457  2.5721 -0.0626 -1.7983
  175SLPC   H5S19817   3.136   5.689   6.560  1.5515  0.8088  0.6469
  175SLPC   C2619818   3.263   5.830   6.484 -0.2272 -0.0938 -0.2718
  175SLPC   H6R19819   3.342   5.822   6.562  3.3266  1.7720 -3.3606
  175SLPC   H6S19820   3.254   5.932   6.442 -0.7729 -1.1099 -2.8187
  175SLPC   C2719821   3.315   5.737   6.376 -0.5607 -0.1809 -0.5368
  175SLPC   H7R19822   3.305   5.637   6.424  0.5024 -0.1511 -0.2418
  175SLPC   H7S19823   3.423   5.757   6.359 -0.4962  0.5562  0.6204
  175SLPC   C2819824   3.239   5.737   6.242 -0.3795  0.4530  0.7531
  175SLPC   H8R19825   3.133   5.708   6.258 -0.2728 -2.0699 -2.0791
  175SLPC   H8S19826   3.283   5.654   6.182  1.5548  2.0588 -0.1671
  175SLPC   C2919827   3.250   5.869   6.174 -0.1749  0.6629 -0.1894
  175SLPC   H9R19828   3.180   5.945   6.211 -0.1863  0.0653  1.0766
  175SLPC  C21019829   3.329   5.899   6.071 -0.9895 -0.1024 -0.7439
  175SLPC  H10R19830   3.320   5.994   6.017  0.2239 -0.1004 -0.9486
  175SLPC  C21119831   3.438   5.807   6.019  0.4321  0.0025 -0.1325
  175SLPC  H11R19832   3.392   5.728   5.955  0.9217  0.1295 -0.6515
  175SLPC  H11S19833   3.488   5.744   6.094  0.1326  0.2279  0.2594
  175SLPC  C21219834   3.534   5.875   5.930 -0.5634 -0.4855  0.0634
  175SLPC  H12R19835   3.629   5.905   5.977 -0.6187  0.2972 -0.2990
  175SLPC  C21319836   3.517   5.889   5.791 -0.0057  0.2085  0.0065
  175SLPC  H13R19837   3.606   5.926   5.737  0.5131 -2.7941 -1.3709
  175SLPC  C21419838   3.388   5.850   5.710  0.6385 -0.6532 -0.3886
  175SLPC  H14R19839   3.310   5.846   5.788 -0.3102  4.4274 -0.7511
  175SLPC  H14S19840   3.396   5.748   5.666 -3.2881  0.0040 -3.1341
  175SLPC  C21519841   3.347   5.947   5.600 -0.5803  0.2158 -0.3259
  175SLPC  H15R19842   3.376   6.047   5.639 -2.2950  1.2201 -1.5017
  175SLPC  H15S19843   3.237   5.958   5.599 -0.6507 -0.4584 -1.6076
  175SLPC  C21619844   3.405   5.911   5.461 -0.0390 -0.2584  0.0148
  175SLPC  H16R19845   3.514   5.890   5.474 -0.3829 -0.5954  2.8641
  175SLPC  H16S19846   3.399   6.003   5.400 -3.2314  0.8602  1.8080
  175SLPC  C21719847   3.346   5.788   5.396  0.1361 -0.3207 -0.5820
  175SLPC  H17R19848   3.244   5.822   5.366  0.0399 -1.7595 -2.0084
  175SLPC  H17S19849   3.347   5.708   5.473  0.1830  0.6073  0.4044
  175SLPC  C21819850   3.426   5.765   5.262  0.4777 -0.3995  0.0706
  175SLPC  H18R19851   3.362   5.704   5.195  1.8685 -0.3981 -1.3140
  175SLPC  H18S19852   3.516   5.701   5.278 -0.7029 -2.4053 -0.9097
  175SLPC  H18T19853   3.447   5.860   5.208 -0.6869 -0.4986 -0.5854
  175SLPC   C3319854   3.230   5.256   6.789 -0.2849 -0.5891 -0.4087
  175SLPC   H3X19855   3.188   5.211   6.696 -0.7432  1.5407 -1.2920
  175SLPC   H3Y19856   3.269   5.166   6.842  0.3453  1.0762  2.1068
  175SLPC   C3419857   3.342   5.355   6.755  0.1410  0.0130  0.0037
  175SLPC   H4X19858   3.374   5.409   6.846  1.2329  1.3851 -1.1421
  175SLPC   H4Y19859   3.283   5.425   6.692 -2.4269 -1.0414  1.0863
  175SLPC   C3519860   3.462   5.279   6.694 -0.1520  0.2898  0.0212
  175SLPC   H5X19861   3.455   5.189   6.759  0.9492 -0.3722 -0.7392
  175SLPC   H5Y19862   3.560   5.330   6.709  0.7698 -1.3258 -0.2554
  175SLPC   C3619863   3.446   5.239   6.544 -0.1654  0.1353 -0.5247
  175SLPC   H6X19864   3.342   5.208   6.520 -0.5788  0.8467  0.2859
  175SLPC   H6Y19865   3.515   5.153   6.540 -2.5273 -1.9750  0.9933
  175SLPC   C3719866   3.488   5.355   6.446  0.6405 -0.3112 -0.1004
  175SLPC   H7X19867   3.587   5.400   6.468  0.4651  1.0944 -1.9887
  175SLPC   H7Y19868   3.414   5.436   6.465  1.0422 -0.5205  2.8429
  175SLPC   C3819869   3.500   5.308   6.297 -0.2701  0.1309  0.0878
  175SLPC   H8X19870   3.428   5.226   6.275  1.0119 -0.3934 -2.6356
  175SLPC   H8Y19871   3.600   5.262   6.284  0.3032  1.5067 -0.5340
  175SLPC   C3919872   3.497   5.423   6.196  0.0069  0.0326  0.3227
  175SLPC   H9X19873   3.561   5.507   6.230  0.6971 -1.0124  1.7240
  175SLPC   H9Y19874   3.390   5.453   6.190  0.3591  1.5373  1.0891
  175SLPC  C31019875   3.538   5.370   6.062 -0.4282  0.5918  0.4730
  175SLPC  H10X19876   3.487   5.274   6.037 -1.0177  1.8057 -3.8497
  175SLPC  H10Y19877   3.645   5.337   6.058 -1.7167 -4.5280  0.9751
  175SLPC  C31119878   3.500   5.464   5.944  0.2765  1.1413 -0.3674
  175SLPC  H11X19879   3.541   5.563   5.972 -1.0974  1.6147  0.0280
  175SLPC  H11Y19880   3.393   5.483   5.923  0.3760 -0.0884 -2.2333
  175SLPC  C31219881   3.575   5.402   5.819 -0.3060  0.6971 -0.9353
  175SLPC  H12X19882   3.505   5.326   5.779 -1.6240  1.6120 -0.4522
  175SLPC  H12Y19883   3.671   5.355   5.848 -1.0790 -0.3477 -0.0021
  175SLPC  C31319884   3.594   5.503   5.702 -0.3187 -0.3980 -0.4421
  175SLPC  H13X19885   3.685   5.566   5.709  2.6318 -4.3915 -0.0109
  175SLPC  H13Y19886   3.503   5.568   5.705 -1.0217 -1.3889  0.8250
  175SLPC  C31419887   3.584   5.433   5.570  0.0232  0.7141 -0.1898
  175SLPC  H14X19888   3.570   5.509   5.491 -0.8891 -1.0452 -1.8139
  175SLPC  H14Y19889   3.489   5.377   5.559  0.5203 -0.1526 -0.1626
  175SLPC  C31519890   3.711   5.357   5.540  0.1218  0.0199 -0.5351
  175SLPC  H15X19891   3.717   5.286   5.625 -0.6422  2.8628  2.0461
  175SLPC  H15Y19892   3.808   5.411   5.539 -0.4443  1.1192  0.8006
  175SLPC  C31619893   3.697   5.292   5.404  0.3615 -0.0280 -0.5336
  175SLPC  H16X19894   3.702   5.365   5.320 -1.1956 -0.1372 -0.7482
  175SLPC  H16Y19895   3.600   5.238   5.405  1.2618 -1.7529  1.9163
  175SLPC  C31719896   3.798   5.183   5.398 -0.6667 -0.2106 -0.1313
  175SLPC  H17X19897   3.779   5.113   5.482  4.0858  0.9023  2.2037
  175SLPC  H17Y19898   3.900   5.223   5.418 -1.0095  0.4202  0.3893
  175SLPC  C31819899   3.790   5.104   5.267  0.1705  0.6062 -0.0015
  175SLPC  H18X19900   3.815   5.171   5.182  0.1488 -1.2897 -1.5785
  175SLPC  H18Y19901   3.687   5.066   5.250  0.5432 -0.8415  0.7692
  175SLPC  H18Z19902   3.855   5.014   5.281 -2.5166 -1.3736  0.5789
  176SLPC     N19903   2.631   3.440   7.527  0.1197 -0.3444 -0.0640
  176SLPC   C1319904   2.545   3.329   7.489 -0.0032  0.2976  0.1511
  176SLPC  H13A19905   2.448   3.374   7.476 -0.4371 -0.6669 -0.0662
  176SLPC  H13B19906   2.575   3.276   7.400 -0.1086 -0.0354  0.3121
  176SLPC  H13C19907   2.532   3.254   7.565 -2.0119  0.3586 -0.0821
  176SLPC   C1419908   2.768   3.398   7.563  0.2552 -0.0204 -0.4809
  176SLPC  H14A19909   2.818   3.344   7.483 -1.3470 -1.4402 -0.5750
  176SLPC  H14B19910   2.823   3.480   7.606  1.2998 -0.8088 -0.2742
  176SLPC  H14C19911   2.767   3.326   7.643  1.4473 -0.6042 -0.9658
  176SLPC   C1519912   2.570   3.517   7.650  0.7810 -0.0722 -0.5964
  176SLPC  H15A19913   2.463   3.520   7.635  0.7797  1.2168 -0.4250
  176SLPC  H15B19914   2.592   3.457   7.737  3.0290  2.9420  1.1069
  176SLPC  H15C19915   2.622   3.612   7.657  1.0353  0.2261 -4.2572
  176SLPC   C1219916   2.636   3.539   7.420 -0.0754 -0.1452  0.5229
  176SLPC  H12A19917   2.701   3.518   7.336  0.0090 -0.1212  0.5813
  176SLPC  H12B19918   2.683   3.632   7.449 -0.7449  1.9265 -4.0193
  176SLPC   C1119919   2.501   3.590   7.350  0.8167  0.4851  0.7995
  176SLPC  H11A19920   2.486   3.518   7.267  1.2033  0.7912  0.4554
  176SLPC  H11B19921   2.529   3.679   7.289 -1.4807 -0.3523 -1.6332
  176SLPC     P19922   2.265   3.689   7.403 -0.0334 -0.0096  0.0982
  176SLPC   O1319923   2.161   3.679   7.507  0.4752 -0.9839 -0.5500
  176SLPC   O1419924   2.307   3.831   7.381  0.0182  0.3547  0.2290
  176SLPC   O1219925   2.396   3.608   7.443  0.3866 -0.0094  0.3716
  176SLPC   O1119926   2.224   3.629   7.260  0.3783 -0.1970  0.6444
  176SLPC    C119927   2.112   3.542   7.242  0.3198 -0.2652 -0.5393
  176SLPC    HA19928   2.033   3.561   7.317 -1.5905 -2.8335 -1.7794
  176SLPC    HB19929   2.059   3.561   7.146 -2.2532 -0.6439  0.7354
  176SLPC    C219930   2.155   3.394   7.244  0.2626  0.4853 -0.3980
  176SLPC    HS19931   2.219   3.382   7.334  0.1687 -1.6651 -0.5627
  176SLPC   O2119932   2.227   3.365   7.126  1.0227  0.2503 -0.7733
  176SLPC   C2119933   2.320   3.268   7.131  0.6514 -0.9800 -0.0816
  176SLPC   O2219934   2.346   3.207   7.234  0.2286 -0.4424  0.1050
  176SLPC   C2219935   2.402   3.280   7.002  0.2766  0.1374  0.5890
  176SLPC   H2R19936   2.448   3.381   7.001  0.5020  0.0403  1.0194
  176SLPC   H2S19937   2.477   3.198   7.005  2.6747  2.1842  0.6608
  176SLPC    C319938   2.033   3.301   7.269  0.3877  0.0322 -0.3771
  176SLPC    HX19939   2.003   3.303   7.376  1.1086  0.3239 -0.1736
  176SLPC    HY19940   2.064   3.196   7.253 -4.8106 -1.8444 -0.1083
  176SLPC   O3119941   1.918   3.332   7.182  0.2387  0.4162 -0.5493
  176SLPC   C3119942   1.822   3.245   7.202 -0.6639  0.2534  0.5273
  176SLPC   O3219943   1.835   3.138   7.266  0.1842  0.1287  0.0129
  176SLPC   C3219944   1.693   3.288   7.138  0.1191 -0.1318  0.5552
  176SLPC   H2X19945   1.677   3.396   7.155  1.0539 -0.0538  0.9867
  176SLPC   H2Y19946   1.616   3.230   7.194 -1.3139  1.9667  0.8635
  176SLPC   C2319947   2.309   3.275   6.872 -0.2831 -0.8019 -0.5983
  176SLPC   H3R19948   2.351   3.292   6.771  0.5484 -2.5005 -0.5689
  176SLPC   H3S19949   2.241   3.361   6.886  0.7087 -0.2120  0.8984
  176SLPC   C2419950   2.237   3.136   6.862 -0.3103  0.4810 -0.3719
  176SLPC   H4R19951   2.191   3.108   6.959 -0.6933  0.3013 -0.6028
  176SLPC   H4S19952   2.300   3.051   6.828 -1.7807 -1.0000  0.4476
  176SLPC   C2519953   2.110   3.136   6.778  0.7802  0.2568  0.4179
  176SLPC   H5R19954   2.038   3.201   6.834 -0.3103 -1.7942  1.5272
  176SLPC   H5S19955   2.055   3.040   6.771  1.6819 -0.2914  0.8006
  176SLPC   C2619956   2.138   3.187   6.631  0.0609 -0.6482 -0.1304
  176SLPC   H6R19957   2.227   3.127   6.603  1.5701  1.2845  0.3449
  176SLPC   H6S19958   2.177   3.290   6.648  2.0854 -0.9117 -2.5736
  176SLPC   C2719959   2.025   3.172   6.526 -0.0424  0.6330 -0.4245
  176SLPC   H7R19960   1.952   3.251   6.553  1.3275  2.0757 -0.7690
  176SLPC   H7S19961   1.977   3.073   6.542 -0.4827  1.2290  2.3543
  176SLPC   C2819962   2.076   3.180   6.378 -0.0081 -0.0683 -0.1558
  176SLPC   H8R19963   1.985   3.156   6.319 -0.6933  0.7853  0.5315
  176SLPC   H8S19964   2.159   3.108   6.359  0.7202  0.9338 -0.8943
  176SLPC   C2919965   2.123   3.307   6.322 -0.3223  0.0868  0.3128
  176SLPC   H9R19966   2.134   3.386   6.398 -1.2778  3.3069 -2.6170
  176SLPC  C21019967   2.135   3.333   6.188 -0.5990  0.4201  0.7456
  176SLPC  H10R19968   2.160   3.435   6.158  0.0028  0.0999  0.1253
  176SLPC  C21119969   2.090   3.235   6.079  0.3869  0.2752 -0.5123
  176SLPC  H11R19970   2.016   3.281   6.010  1.4830  1.3167 -1.0218
  176SLPC  H11S19971   2.042   3.148   6.128 -1.0933 -0.2429 -2.7243
  176SLPC  C21219972   2.208   3.197   5.998 -0.1353  0.5248  0.5404
  176SLPC  H12R19973   2.276   3.123   6.043  0.2442  0.9337  0.6544
  176SLPC  C21319974   2.249   3.241   5.880 -0.0183  0.1518  0.0121
  176SLPC  H13R19975   2.354   3.216   5.859 -0.0923  0.2718 -0.5106
  176SLPC  C21419976   2.178   3.342   5.791 -0.1900 -0.1507  0.2915
  176SLPC  H14R19977   2.232   3.438   5.802  2.3795 -1.4896  0.2268
  176SLPC  H14S19978   2.074   3.354   5.830  0.5057  0.9656  1.8949
  176SLPC  C21519979   2.174   3.306   5.642 -0.4028 -0.6373  0.1486
  176SLPC  H15R19980   2.124   3.388   5.587 -0.1656 -0.4570  0.2022
  176SLPC  H15S19981   2.106   3.218   5.637  1.0570 -1.6961 -2.1708
  176SLPC  C21619982   2.321   3.288   5.587  0.2169 -0.2958 -0.0064
  176SLPC  H16R19983   2.381   3.227   5.657 -1.1110  0.5300  1.9276
  176SLPC  H16S19984   2.372   3.387   5.580  2.5451 -1.3865  0.6030
  176SLPC  C21719985   2.337   3.225   5.450  0.3653  0.7746 -0.2722
  176SLPC  H17R19986   2.373   3.297   5.373 -0.1901 -1.9449 -3.3216
  176SLPC  H17S19987   2.237   3.208   5.404  0.1577 -2.6750  1.1833
  176SLPC  C21819988   2.430   3.103   5.435  0.2227 -0.4783 -0.1034
  176SLPC  H18R19989   2.439   3.073   5.329 -2.7006  0.0757 -0.5773
  176SLPC  H18S19990   2.397   3.012   5.490  4.2448 -1.9973  0.0938
  176SLPC  H18T19991   2.530   3.126   5.478  0.5786  0.2781 -1.2975
  176SLPC   C3319992   1.687   3.241   6.986 -0.0470 -0.2901  0.6525
  176SLPC   H3X19993   1.776   3.280   6.932 -0.8697 -1.8704 -2.0062
  176SLPC   H3Y19994   1.598   3.289   6.941 -0.5886 -1.7016  0.1653
  176SLPC   C3419995   1.689   3.087   6.969 -0.6036  0.0188  0.0095
  176SLPC   H4X19996   1.626   3.039   7.046 -0.2325 -3.3407 -1.6232
  176SLPC   H4Y19997   1.796   3.062   6.984 -0.3207  1.0062 -0.2399
  176SLPC   C3519998   1.631   3.043   6.833 -0.2960 -0.7350  0.6167
  176SLPC   H5X19999   1.528   3.084   6.825  0.7218  1.9143  0.4185
  176SLPC   H5Y20000   1.626   2.932   6.844  0.2751 -0.8533 -0.2774
  176SLPC   C3620001   1.710   3.082   6.713  0.0774  0.3805  0.6251
  176SLPC   H6X20002   1.800   3.017   6.703  0.9408  1.5569  0.5142
  176SLPC   H6Y20003   1.743   3.186   6.729  1.2777  0.3643 -1.4333
  176SLPC   C3720004   1.627   3.077   6.578  0.3876 -0.1422  0.2925
  176SLPC   H7X20005   1.578   3.177   6.566 -0.4666 -0.2071  2.6106
  176SLPC   H7Y20006   1.554   2.993   6.583  1.5196 -1.2776 -1.2498
  176SLPC   C3820007   1.707   3.064   6.454 -1.0821  0.0537 -0.1680
  176SLPC   H8X20008   1.788   2.988   6.462 -1.2106  0.0538  1.3912
  176SLPC   H8Y20009   1.757   3.160   6.429 -1.9883  0.1261 -1.8102
  176SLPC   C3920010   1.621   3.041   6.328 -0.3791  0.3531 -0.1076
  176SLPC   H9X20011   1.534   3.109   6.319 -0.0035  1.4169  3.0601
  176SLPC   H9Y20012   1.588   2.934   6.327  0.8911 -0.0625  0.0873
  176SLPC  C31020013   1.718   3.062   6.208 -0.3770 -0.5879  0.0124
  176SLPC  H10X20014   1.811   3.002   6.223  0.2793  0.2019 -0.7868
  176SLPC  H10Y20015   1.748   3.169   6.207 -1.6110 -0.2265  0.1559
  176SLPC  C31120016   1.651   3.023   6.075 -0.5772 -0.6698  0.9477
  176SLPC  H11X20017   1.552   3.069   6.056  0.3068  0.6796 -0.6965
  176SLPC  H11Y20018   1.631   2.914   6.079  0.9042 -0.9833  0.3837
  176SLPC  C31220019   1.745   3.046   5.956  0.0405  0.4216  0.6658
  176SLPC  H12X20020   1.784   3.150   5.945  2.6949 -0.7032 -1.7418
  176SLPC  H12Y20021   1.690   3.026   5.862 -0.1700  2.0187  0.4131
  176SLPC  C31320022   1.876   2.967   5.956 -0.2786 -0.5165  0.4518
  176SLPC  H13X20023   1.936   2.980   6.048  1.4530 -1.0303 -0.5573
  176SLPC  H13Y20024   1.950   2.998   5.879 -1.0134 -1.7793 -0.7970
  176SLPC  C31420025   1.870   2.816   5.935  0.0760  0.5412  0.2103
  176SLPC  H14X20026   1.797   2.789   5.855  0.8242 -0.2091 -0.2361
  176SLPC  H14Y20027   1.831   2.781   6.032 -2.5889  0.8310 -0.6745
  176SLPC  C31520028   2.004   2.748   5.903  0.5638 -0.6242 -0.2955
  176SLPC  H15X20029   2.037   2.757   5.797  2.4198 -1.9134  0.1297
  176SLPC  H15Y20030   1.989   2.642   5.930  0.3758 -0.5372 -0.0606
  176SLPC  C31620031   2.124   2.792   5.994 -0.0654  0.0083 -0.7095
  176SLPC  H16X20032   2.136   2.903   5.992  0.0392 -0.0094 -1.0186
  176SLPC  H16Y20033   2.218   2.747   5.956 -0.8018 -2.0451 -0.1875
  176SLPC  C31720034   2.116   2.743   6.140  0.3161 -0.2553  0.9826
  176SLPC  H17X20035   2.155   2.639   6.146  1.6064 -0.0596 -2.0621
  176SLPC  H17Y20036   2.010   2.734   6.172  0.5178  0.1301  1.7812
  176SLPC  C31820037   2.210   2.823   6.229  0.2084 -0.0020 -0.4135
  176SLPC  H18X20038   2.174   2.927   6.243  0.1501 -0.1105  0.2806
  176SLPC  H18Y20039   2.315   2.825   6.192  0.7260  0.7160  0.9839
  176SLPC  H18Z20040   2.211   2.770   6.327 -1.4829  0.8572  0.1106
  177SLPC     N20041   1.857   6.539   7.782  0.1803 -0.7253  0.0531
  177SLPC   C1320042   1.837   6.390   7.786 -0.1469 -0.3860  0.7766
  177SLPC  H13A20043   1.751   6.364   7.845 -0.8693 -1.7237 -0.7608
  177SLPC  H13B20044   1.828   6.340   7.691  0.0869  0.6248  0.2039
  177SLPC  H13C20045   1.928   6.353   7.832  1.7642  0.9455 -1.6230
  177SLPC   C1420046   1.992   6.567   7.719 -0.6173  0.3842  0.1751
  177SLPC  H14A20047   2.000   6.673   7.697  0.3053  0.1154 -0.9085
  177SLPC  H14B20048   2.074   6.522   7.773  0.3257  2.4603  0.5806
  177SLPC  H14C20049   1.987   6.511   7.626 -0.4630 -1.4965  1.2435
  177SLPC   C1520050   1.858   6.593   7.920  0.7186 -0.4274  0.3245
  177SLPC  H15A20051   1.908   6.689   7.930  0.3929  0.0217 -1.8036
  177SLPC  H15B20052   1.755   6.608   7.947  0.3025 -1.7518 -0.4836
  177SLPC  H15C20053   1.892   6.524   7.996 -0.7507 -0.7197  0.7389
  177SLPC   C1220054   1.740   6.605   7.703 -0.0519  0.3595  0.2974
  177SLPC  H12A20055   1.645   6.572   7.743 -1.4440  1.7719 -1.6540
  177SLPC  H12B20056   1.743   6.575   7.599 -1.4671  2.2120 -0.3445
  177SLPC   C1120057   1.716   6.752   7.693  0.2666  0.6730  0.1742
  177SLPC  H11A20058   1.803   6.807   7.651  0.8167 -0.6104 -0.4179
  177SLPC  H11B20059   1.689   6.787   7.795  2.0868  1.4946  0.4153
  177SLPC     P20060   1.589   6.757   7.468  0.0343 -0.2900 -0.5234
  177SLPC   O1320061   1.534   6.622   7.443 -0.1892  0.1883  0.1927
  177SLPC   O1420062   1.509   6.870   7.411  0.2880 -0.0142 -0.4980
  177SLPC   O1220063   1.602   6.779   7.620  0.1769  0.4012  0.3373
  177SLPC   O1120064   1.749   6.767   7.423 -0.2313 -0.5780 -0.7855
  177SLPC    C120065   1.791   6.893   7.358 -0.6144  0.1547 -0.4656
  177SLPC    HA20066   1.726   6.979   7.383 -2.0674 -1.1146  0.2620
  177SLPC    HB20067   1.890   6.919   7.402 -1.7437 -1.0487  3.0878
  177SLPC    C220068   1.798   6.875   7.205 -0.9498  0.4157  0.1694
  177SLPC    HS20069   1.699   6.851   7.161 -0.8541 -0.1645  0.2659
  177SLPC   O2120070   1.904   6.781   7.179  0.0060 -0.0929  0.9428
  177SLPC   C2120071   1.876   6.687   7.092 -0.2858  0.3797 -0.6473
  177SLPC   O2220072   1.775   6.678   7.029 -0.1589 -0.1761  0.0884
  177SLPC   C2220073   1.995   6.588   7.077  0.1118  0.3998  0.6966
  177SLPC   H2R20074   2.093   6.638   7.093  1.9955 -2.3116 -1.5164
  177SLPC   H2S20075   1.992   6.512   7.158  0.3062 -0.9247 -0.4988
  177SLPC    C320076   1.856   7.010   7.151 -0.1557  0.4288  0.4213
  177SLPC    HX20077   1.966   7.005   7.167 -0.0086  2.4480  0.3108
  177SLPC    HY20078   1.820   7.101   7.205 -1.9932 -0.4779  0.8013
  177SLPC   O3120079   1.805   7.028   7.016  0.1883  0.1409 -0.3319
  177SLPC   C3120080   1.884   7.007   6.915 -0.1177 -0.0172  0.1289
  177SLPC   O3220081   1.999   6.972   6.918  0.1544 -0.2776 -0.6272
  177SLPC   C3220082   1.810   7.033   6.781 -0.3894  0.2252 -0.1904
  177SLPC   H2X20083   1.794   7.141   6.765  0.1505  0.3652  0.1764
  177SLPC   H2Y20084   1.706   6.994   6.784 -0.9484  1.6358 -0.6958
  177SLPC   C2320085   2.006   6.521   6.933 -0.4678  0.5053  0.8038
  177SLPC   H3R20086   1.915   6.470   6.894  0.3326 -0.4820  0.1654
  177SLPC   H3S20087   2.091   6.449   6.933 -0.6122  0.2744 -1.3569
  177SLPC   C2420088   2.047   6.628   6.826 -0.7170 -0.0536 -0.0790
  177SLPC   H4R20089   2.120   6.701   6.866 -0.5721 -0.4769  0.4421
  177SLPC   H4S20090   1.951   6.677   6.801 -0.6533  0.1765  0.1221
  177SLPC   C2520091   2.103   6.564   6.699  0.6593 -0.1379  0.1408
  177SLPC   H5R20092   2.189   6.499   6.727  1.3871  0.4528 -0.6489
  177SLPC   H5S20093   2.143   6.645   6.634  0.3978 -0.2434 -0.1564
  177SLPC   C2620094   1.996   6.501   6.618 -0.4131 -0.3031 -0.4355
  177SLPC   H6R20095   1.910   6.571   6.606 -0.1036  0.1815  0.1479
  177SLPC   H6S20096   1.951   6.414   6.669  1.1026 -1.2028 -0.5854
  177SLPC   C2720097   2.034   6.453   6.478 -0.0016 -0.3630  0.2457
  177SLPC   H7R20098   2.096   6.361   6.471 -0.4635 -0.8601  2.0757
  177SLPC   H7S20099   2.088   6.538   6.432 -0.6606 -0.0613  0.0231
  177SLPC   C2820100   1.914   6.435   6.384 -0.5362 -0.3813  0.5955
  177SLPC   H8R20101   1.958   6.434   6.282 -1.3748  0.8365  0.2019
  177SLPC   H8S20102   1.840   6.518   6.384 -1.1153 -0.8829 -0.4765
  177SLPC   C2920103   1.845   6.314   6.416  0.6956  1.4223 -0.6553
  177SLPC   H9R20104   1.851   6.305   6.525  0.0535 -2.5549 -0.7900
  177SLPC  C21020105   1.780   6.229   6.331  1.2490  0.4048  0.2357
  177SLPC  H10R20106   1.717   6.155   6.383 -4.0930  3.5357 -0.9861
  177SLPC  C21120107   1.788   6.233   6.176  0.1553  0.4288  0.2678
  177SLPC  H11R20108   1.866   6.303   6.139  2.4872 -3.5450 -3.1924
  177SLPC  H11S20109   1.690   6.274   6.143 -0.1583  0.7330  1.5210
  177SLPC  C21220110   1.821   6.107   6.106 -0.1867 -0.3785 -0.2669
  177SLPC  H12R20111   1.829   6.024   6.177 -1.6470  1.2439  1.9208
  177SLPC  C21320112   1.811   6.091   5.970 -0.3143 -0.1144 -0.0824
  177SLPC  H13R20113   1.838   5.998   5.919 -1.2212 -1.3754  1.6432
  177SLPC  C21420114   1.782   6.208   5.876 -0.1899  0.3062 -0.6190
  177SLPC  H14R20115   1.843   6.294   5.911 -1.6247  1.1971 -0.2213
  177SLPC  H14S20116   1.676   6.233   5.895 -0.7139 -2.9121  1.4358
  177SLPC  C21520117   1.820   6.185   5.727 -0.4280 -0.8710 -0.3609
  177SLPC  H15R20118   1.929   6.170   5.708 -0.2863 -0.5649  0.1973
  177SLPC  H15S20119   1.799   6.282   5.678  0.9487 -0.4107 -0.0943
  177SLPC  C21620120   1.740   6.074   5.660 -0.3151  0.0893 -0.4988
  177SLPC  H16R20121   1.765   5.978   5.709 -0.1529 -0.2797 -1.2886
  177SLPC  H16S20122   1.762   6.081   5.551  1.1125  0.5047 -0.2047
  177SLPC  C21720123   1.589   6.090   5.666  0.2948 -0.4839  0.3536
  177SLPC  H17R20124   1.566   6.196   5.641 -0.6611 -0.3709  1.6269
  177SLPC  H17S20125   1.562   6.072   5.772  2.0448  2.2918  1.3734
  177SLPC  C21820126   1.516   5.998   5.574  0.3012 -0.8015 -0.1969
  177SLPC  H18R20127   1.547   6.016   5.469 -0.2228 -0.6039 -0.3237
  177SLPC  H18S20128   1.405   6.011   5.578  0.1228 -1.7240 -1.4483
  177SLPC  H18T20129   1.545   5.891   5.583  0.3880 -0.8472 -0.9396
  177SLPC   C3320130   1.882   6.967   6.666 -0.4910  0.1822  0.4438
  177SLPC   H3X20131   1.902   6.858   6.676 -0.5602  0.2716  1.7056
  177SLPC   H3Y20132   1.981   7.018   6.666  0.2311 -1.1005  2.3810
  177SLPC   C3420133   1.799   6.984   6.533 -0.0770 -0.8353 -0.4718
  177SLPC   H4X20134   1.793   7.091   6.505  0.8889 -1.0554 -1.6056
  177SLPC   H4Y20135   1.701   6.944   6.565 -0.4904  0.9833  0.7110
  177SLPC   C3520136   1.851   6.895   6.418  0.1473 -0.2358  0.0410
  177SLPC   H5X20137   1.879   6.793   6.452  1.7537  0.5004  1.0676
  177SLPC   H5Y20138   1.937   6.954   6.381 -0.3798  0.2115 -0.4913
  177SLPC   C3620139   1.752   6.893   6.298  0.1368 -0.3230  0.4459
  177SLPC   H6X20140   1.722   6.998   6.277 -0.3871  0.3658  3.9068
  177SLPC   H6Y20141   1.652   6.851   6.323 -0.5443 -0.3284 -2.0582
  177SLPC   C3720142   1.814   6.831   6.179  0.2519 -0.5059  0.2972
  177SLPC   H7X20143   1.842   6.727   6.207 -0.3825 -1.0698 -1.0778
  177SLPC   H7Y20144   1.903   6.891   6.150 -2.1225  2.8000 -0.6996
  177SLPC   C3820145   1.723   6.827   6.057  0.0983  0.3818  0.7153
  177SLPC   H8X20146   1.689   6.931   6.037 -0.3661  0.1503  0.2681
  177SLPC   H8Y20147   1.632   6.774   6.091  0.8175 -2.2469 -1.1448
  177SLPC   C3920148   1.782   6.754   5.931  0.7037  0.4443  0.2686
  177SLPC   H9X20149   1.701   6.727   5.860  0.6206  1.2412  0.0504
  177SLPC   H9Y20150   1.822   6.655   5.962 -1.4537 -0.7333 -0.4835
  177SLPC  C31020151   1.897   6.827   5.869 -0.5423  0.3416  0.6743
  177SLPC  H10X20152   1.978   6.799   5.939  2.3546 -1.9095 -3.1792
  177SLPC  H10Y20153   1.889   6.937   5.860 -1.0304  0.3478  1.1121
  177SLPC  C31120154   1.943   6.768   5.737  0.4383  0.3623 -0.2903
  177SLPC  H11X20155   1.936   6.660   5.759 -1.4948  0.5746  0.3222
  177SLPC  H11Y20156   2.042   6.808   5.706  0.1213  0.0014 -1.8763
  177SLPC  C31220157   1.855   6.790   5.611  0.3354 -1.0229  0.1515
  177SLPC  H12X20158   1.758   6.738   5.628 -0.6024  0.9322  1.1466
  177SLPC  H12Y20159   1.905   6.747   5.521  0.3932  1.9376 -1.3583
  177SLPC  C31320160   1.830   6.936   5.574 -0.6218  0.0309  0.8229
  177SLPC  H13X20161   1.932   6.977   5.560  0.2104 -2.2088 -0.1265
  177SLPC  H13Y20162   1.795   7.001   5.657 -0.0314  1.1040  0.2364
  177SLPC  C31420163   1.735   6.969   5.462  0.2196 -0.8780  1.4894
  177SLPC  H14X20164   1.635   7.002   5.499 -0.0986 -1.6434  1.3250
  177SLPC  H14Y20165   1.716   6.875   5.406  0.8619 -0.7210  0.9872
  177SLPC  C31520166   1.795   7.071   5.359  0.4160  0.2507  0.7944
  177SLPC  H15X20167   1.840   7.155   5.416 -1.5090  2.5919 -0.8990
  177SLPC  H15Y20168   1.718   7.123   5.299  1.0874  0.3820  0.0219
  177SLPC  C31620169   1.908   7.010   5.273 -0.2781  0.3321  0.5367
  177SLPC  H16X20170   1.855   6.927   5.222  1.7053  0.3283 -1.6637
  177SLPC  H16Y20171   1.989   6.985   5.346  0.6842  0.2381 -0.5387
  177SLPC  C31720172   1.972   7.099   5.164 -0.3086 -0.0670 -0.2789
  177SLPC  H17X20173   1.887   7.162   5.129 -0.5968  0.6496  1.5593
  177SLPC  H17Y20174   2.027   7.043   5.086  2.8479  0.4000  1.4743
  177SLPC  C31820175   2.075   7.195   5.215 -0.2080 -0.8027 -0.0730
  177SLPC  H18X20176   2.157   7.131   5.253 -0.8686 -1.7448 -0.1784
  177SLPC  H18Y20177   2.032   7.266   5.289  1.5679 -0.2576  0.4780
  177SLPC  H18Z20178   2.105   7.245   5.120 -0.9028 -2.7552 -1.4013
  178SLPC     N20179   0.624   2.722   7.755 -0.2326  0.5870  0.3501
  178SLPC   C1320180   0.685   2.618   7.668 -0.0285  0.3853  0.1142
  178SLPC  H13A20181   0.598   2.575   7.620 -0.2590  2.9901 -2.0460
  178SLPC  H13B20182   0.753   2.655   7.593 -0.9662 -1.1130 -1.5530
  178SLPC  H13C20183   0.729   2.538   7.725 -2.6148 -0.9310  0.4313
  178SLPC   C1420184   0.565   2.827   7.666  0.2763 -0.6868  0.0050
  178SLPC  H14A20185   0.472   2.797   7.619  0.5986 -3.0087  0.7440
  178SLPC  H14B20186   0.547   2.915   7.726  1.5236 -0.3231 -0.1367
  178SLPC  H14C20187   0.638   2.861   7.594  1.6446  0.8805  2.0350
  178SLPC   C1520188   0.738   2.773   7.837 -0.0253  0.1783  0.2066
  178SLPC  H15A20189   0.808   2.823   7.772 -0.8448 -1.1544 -1.8100
  178SLPC  H15B20190   0.690   2.845   7.903 -1.5505 -0.8718  0.3076
  178SLPC  H15C20191   0.784   2.698   7.900  0.5256  0.7986  0.5534
  178SLPC   C1220192   0.520   2.658   7.840  0.0354 -0.0458 -0.4028
  178SLPC  H12A20193   0.476   2.740   7.895 -1.3185  1.1980 -3.1558
  178SLPC  H12B20194   0.556   2.582   7.908  0.5009 -1.6223 -2.3365
  178SLPC   C1120195   0.391   2.603   7.762 -0.5727  0.3084  1.1339
  178SLPC  H11A20196   0.354   2.683   7.694  0.0540  1.0463  1.6399
  178SLPC  H11B20197   0.305   2.589   7.831 -2.6199  0.7918 -1.1776
  178SLPC     P20198   0.417   2.341   7.730  0.0181  0.0298 -0.1481
  178SLPC   O1320199   0.458   2.340   7.873 -0.0197  0.6118  0.2067
  178SLPC   O1420200   0.284   2.276   7.699  0.2358 -0.3263 -0.5048
  178SLPC   O1220201   0.419   2.489   7.679  0.8816  0.8555 -0.2528
  178SLPC   O1120202   0.533   2.282   7.644  0.2662 -0.2753 -0.1644
  178SLPC    C120203   0.531   2.307   7.503 -0.2119 -0.7006  0.1021
  178SLPC    HA20204   0.506   2.413   7.478 -0.9493 -0.9008 -0.0337
  178SLPC    HB20205   0.632   2.291   7.459 -0.0232 -3.6799  1.4051
  178SLPC    C220206   0.445   2.209   7.417  0.1629  0.4078  0.2982
  178SLPC    HS20207   0.461   2.237   7.310 -1.5204  0.0877 -0.0765
  178SLPC   O2120208   0.307   2.211   7.433  0.2921 -0.6338  0.7706
  178SLPC   C2120209   0.238   2.318   7.391 -0.3772  0.6996  0.2869
  178SLPC   O2220210   0.297   2.416   7.344  0.0941  0.1703  0.2945
  178SLPC   C2220211   0.090   2.294   7.407  0.3322  0.1417 -0.8134
  178SLPC   H2R20212   0.077   2.277   7.516  0.1405  0.8518 -0.7229
  178SLPC   H2S20213   0.040   2.389   7.382  0.7685  0.9476  1.1770
  178SLPC    C320214   0.501   2.065   7.434 -0.8329 -0.0257  0.4284
  178SLPC    HX20215   0.474   2.036   7.538 -2.8657  0.1548  0.0046
  178SLPC    HY20216   0.612   2.068   7.431 -0.8597 -0.2339 -1.4756
  178SLPC   O3120217   0.441   1.967   7.343 -0.4391 -0.2436 -0.6645
  178SLPC   C3120218   0.519   1.946   7.241 -0.0510  0.1806 -0.1418
  178SLPC   O3220219   0.623   2.002   7.212  0.0848  0.5502  0.0468
  178SLPC   C3220220   0.446   1.842   7.148 -0.2834 -1.0297 -0.3620
  178SLPC   H2X20221   0.345   1.886   7.135 -0.0273  0.3935  1.8057
  178SLPC   H2Y20222   0.444   1.741   7.194 -0.1635 -1.3229 -0.9902
  178SLPC   C2320223   0.035   2.180   7.315 -0.2970  0.3283  0.4351
  178SLPC   H3R20224  -0.072   2.171   7.345 -0.4405  1.0157  0.1405
  178SLPC   H3S20225   0.086   2.086   7.344  0.5073  0.9623  1.1226
  178SLPC   C2420226   0.058   2.209   7.165 -0.2995 -0.5546 -0.0461
  178SLPC   H4R20227   0.167   2.217   7.148 -0.1698 -1.6992  0.1804
  178SLPC   H4S20228   0.012   2.309   7.149  1.0321 -0.0113 -0.6368
  178SLPC   C2520229   0.011   2.106   7.056  0.1410  0.0486 -0.1074
  178SLPC   H5R20230  -0.077   2.047   7.089 -0.3917  0.0123 -1.5186
  178SLPC   H5S20231   0.086   2.025   7.051 -1.1712 -1.1443 -1.8098
  178SLPC   C2620232  -0.029   2.171   6.918  0.4657 -0.1012  0.3149
  178SLPC   H6R20233   0.045   2.246   6.883  2.4243 -2.8991 -1.9621
  178SLPC   H6S20234  -0.118   2.238   6.918  0.1389 -0.5185 -0.5933
  178SLPC   C2720235  -0.049   2.061   6.802  0.0818  0.5537 -0.4381
  178SLPC   H7R20236  -0.150   2.015   6.803 -0.2495  1.2441 -1.0805
  178SLPC   H7S20237   0.036   1.992   6.815  0.6116  0.5255 -3.3572
  178SLPC   C2820238  -0.017   2.119   6.666 -0.1075 -0.1243  0.2019
  178SLPC   H8R20239  -0.055   2.222   6.650  2.0955  1.0604  1.9355
  178SLPC   H8S20240  -0.074   2.045   6.607  1.9454 -1.3284 -0.3916
  178SLPC   C2920241   0.125   2.134   6.619 -0.1866  0.6489  0.6533
  178SLPC   H9R20242   0.204   2.089   6.680  2.0436 -0.6300 -2.8587
  178SLPC  C21020243   0.172   2.217   6.528  0.2132  0.4881 -0.1611
  178SLPC  H10R20244   0.276   2.195   6.499 -0.9766 -1.6535 -3.2953
  178SLPC  C21120245   0.101   2.294   6.422  0.4848 -0.6434  0.1517
  178SLPC  H11R20246  -0.009   2.284   6.438  0.1628 -1.9663 -2.3263
  178SLPC  H11S20247   0.123   2.244   6.324 -1.4273  1.6614 -1.5795
  178SLPC  C21220248   0.158   2.434   6.414  1.0844 -0.3010  0.4393
  178SLPC  H12R20249   0.152   2.498   6.503  0.8924  0.2531  0.0376
  178SLPC  C21320250   0.222   2.483   6.299  0.4320 -0.4515  0.1273
  178SLPC  H13R20251   0.260   2.586   6.301 -1.6751  0.4915 -2.3666
  178SLPC  C21420252   0.229   2.416   6.164  0.2763 -0.0351  0.7349
  178SLPC  H14R20253   0.170   2.324   6.145  1.9500 -1.4387  1.9503
  178SLPC  H14S20254   0.332   2.387   6.134 -0.0537  0.4546 -0.9750
  178SLPC  C21520255   0.190   2.522   6.056  0.7909  0.6638  0.1394
  178SLPC  H15R20256   0.097   2.580   6.078  0.2068 -0.4228  0.6554
  178SLPC  H15S20257   0.157   2.460   5.970  2.7392  0.0375 -0.1943
  178SLPC  C21620258   0.303   2.621   6.018  0.7490  0.4734 -0.1184
  178SLPC  H16R20259   0.379   2.568   5.957  0.2934 -0.8897  0.4427
  178SLPC  H16S20260   0.361   2.660   6.104 -0.3274 -1.4176  1.5687
  178SLPC  C21720261   0.241   2.746   5.959  0.2748  0.0324  0.3300
  178SLPC  H17R20262   0.205   2.813   6.039 -1.1511  0.7822 -0.8946
  178SLPC  H17S20263   0.156   2.724   5.891  1.8872  1.6596 -2.3980
  178SLPC  C21820264   0.339   2.828   5.876  0.2637  0.8120 -0.1710
  178SLPC  H18R20265   0.432   2.855   5.931 -0.3032  0.1063  1.1802
  178SLPC  H18S20266   0.300   2.925   5.837  0.5303  0.6936 -0.7369
  178SLPC  H18T20267   0.372   2.778   5.783  0.2198  2.2307 -0.9887
  178SLPC   C3320268   0.523   1.835   7.011  0.4170 -0.1401  0.5983
  178SLPC   H3X20269   0.633   1.844   7.021  0.5394 -0.1377 -0.6036
  178SLPC   H3Y20270   0.507   1.931   6.958  2.9838 -0.0161 -0.0711
  178SLPC   C3420271   0.483   1.711   6.932  0.3739 -0.5076  0.0145
  178SLPC   H4X20272   0.376   1.721   6.906 -0.0139 -2.1907  0.8444
  178SLPC   H4Y20273   0.496   1.621   6.996  1.3012  0.9605  1.9801
  178SLPC   C3520274   0.552   1.692   6.794 -0.1260 -0.4266 -0.2206
  178SLPC   H5X20275   0.593   1.589   6.792  0.4259 -0.3054  2.2540
  178SLPC   H5Y20276   0.647   1.749   6.795 -0.0736 -0.5181  0.0776
  178SLPC   C3620277   0.464   1.725   6.676 -1.1128  0.2144 -0.0523
  178SLPC   H6X20278   0.447   1.835   6.677  1.0923  0.6262 -1.0631
  178SLPC   H6Y20279   0.368   1.671   6.687 -0.1461 -1.3286  1.3437
  178SLPC   C3720280   0.513   1.683   6.539  0.3332  0.1570 -0.0238
  178SLPC   H7X20281   0.529   1.574   6.533  2.4634  0.3809  0.6523
  178SLPC   H7Y20282   0.615   1.724   6.522  1.0040 -2.2470 -2.4284
  178SLPC   C3820283   0.415   1.708   6.422 -0.8978 -0.2619  0.1305
  178SLPC   H8X20284   0.414   1.816   6.396 -1.6390 -0.5357 -1.0643
  178SLPC   H8Y20285   0.314   1.663   6.436 -0.5966 -0.8408  0.4726
  178SLPC   C3920286   0.464   1.631   6.294 -0.0071 -0.0194  0.0264
  178SLPC   H9X20287   0.451   1.521   6.309 -2.1792 -0.5740 -4.3567
  178SLPC   H9Y20288   0.574   1.638   6.277 -0.2126 -0.4763 -1.6430
  178SLPC  C31020289   0.391   1.675   6.168  0.0609 -0.1477  0.7861
  178SLPC  H10X20290   0.421   1.782   6.159  1.1389 -0.4330  0.7789
  178SLPC  H10Y20291   0.282   1.656   6.173 -0.0759 -0.3156 -1.6582
  178SLPC  C31120292   0.426   1.620   6.031  0.6731  0.0727 -0.0390
  178SLPC  H11X20293   0.414   1.510   6.040  1.6206  0.0772  1.7464
  178SLPC  H11Y20294   0.531   1.644   6.003  0.4844  1.1420  0.1265
  178SLPC  C31220295   0.328   1.673   5.927  0.1629 -0.0171  0.7477
  178SLPC  H12X20296   0.330   1.784   5.933  1.7651  0.0550 -0.5050
  178SLPC  H12Y20297   0.228   1.629   5.946 -0.3433  1.0951  0.7103
  178SLPC  C31320298   0.377   1.627   5.780 -0.0544 -0.1991 -0.5162
  178SLPC  H13X20299   0.298   1.645   5.704  1.1468  1.3497 -1.4603
  178SLPC  H13Y20300   0.382   1.517   5.792  0.6046 -0.1844 -0.6464
  178SLPC  C31420301   0.513   1.691   5.739 -0.0417  0.1001 -0.0581
  178SLPC  H14X20302   0.595   1.636   5.790  2.8568  1.1207 -3.2304
  178SLPC  H14Y20303   0.507   1.798   5.767 -1.7002  0.9963 -3.3279
  178SLPC  C31520304   0.535   1.681   5.593  0.4854  0.5479  0.4213
  178SLPC  H15X20305   0.451   1.733   5.543  1.8425  0.3870 -2.2361
  178SLPC  H15Y20306   0.527   1.574   5.564 -1.7317  1.0779 -1.2189
  178SLPC  C31620307   0.663   1.754   5.550  0.5948  0.9662  0.2853
  178SLPC  H16X20308   0.747   1.699   5.599  0.0792 -0.7115 -0.6248
  178SLPC  H16Y20309   0.666   1.865   5.560 -2.0553  1.3479 -1.9998
  178SLPC  C31720310   0.687   1.716   5.403  0.3644 -0.2029 -1.1541
  178SLPC  H17X20311   0.768   1.786   5.375  0.6398  0.0236  0.1461
  178SLPC  H17Y20312   0.596   1.733   5.341 -0.1216  0.0331 -0.3890
  178SLPC  C31820313   0.743   1.580   5.377 -0.2595  0.5539  0.7517
  178SLPC  H18X20314   0.736   1.554   5.269 -0.1588  0.2597  0.8167
  178SLPC  H18Y20315   0.680   1.506   5.430 -1.0736  0.7410  0.0680
  178SLPC  H18Z20316   0.852   1.583   5.398  0.5865  0.0118 -2.8882
  179SLPC     N20317   6.407   5.489   2.824 -0.1546  0.8889 -0.2159
  179SLPC   C1320318   6.319   5.410   2.735 -0.2738 -0.0834  0.6059
  179SLPC  H13A20319   6.352   5.308   2.732  0.5512  0.0463  2.9630
  179SLPC  H13B20320   6.217   5.411   2.770 -0.6641 -2.7194 -0.2613
  179SLPC  H13C20321   6.323   5.447   2.634 -1.4162 -0.3855  0.4410
  179SLPC   C1420322   6.370   5.627   2.814 -0.1719  0.1947 -0.4707
  179SLPC  H14A20323   6.392   5.655   2.712  1.5326 -2.4303 -0.8956
  179SLPC  H14B20324   6.266   5.649   2.835  0.5866  2.3587  1.4603
  179SLPC  H14C20325   6.433   5.684   2.881 -0.4259  0.1052 -0.1549
  179SLPC   C1520326   6.551   5.469   2.770  0.3246  0.7813 -0.0189
  179SLPC  H15A20327   6.590   5.371   2.792  2.3006  1.9939  2.4295
  179SLPC  H15B20328   6.549   5.479   2.663 -0.0756 -0.6208 -0.1652
  179SLPC  H15C20329   6.617   5.548   2.801  1.4585 -1.0216  2.5257
  179SLPC   C1220330   6.410   5.440   2.970 -0.0817  0.3375  0.2440
  179SLPC  H12A20331   6.485   5.483   3.035  0.8328 -0.3932 -0.2994
  179SLPC  H12B20332   6.431   5.334   2.975 -0.1055  0.1081 -2.6157
  179SLPC   C1120333   6.270   5.460   3.044 -0.4429 -0.3240 -0.0372
  179SLPC  H11A20334   6.266   5.566   3.078  1.9233 -0.4207  0.7475
  179SLPC  H11B20335   6.277   5.394   3.133 -0.2574 -0.9199 -0.4919
  179SLPC     P20336   6.058   5.327   3.005 -0.0085  0.3843 -0.0726
  179SLPC   O1320337   5.944   5.345   2.909 -0.2056 -0.4451 -0.1504
  179SLPC   O1420338   6.124   5.194   3.011 -0.0373 -0.7162 -0.1617
  179SLPC   O1220339   6.160   5.432   2.970 -0.6331 -0.1717 -0.0193
  179SLPC   O1120340   6.014   5.369   3.151 -0.3301 -0.3869  0.4810
  179SLPC    C120341   5.961   5.503   3.164 -0.1829  0.0282  0.3411
  179SLPC    HA20342   6.047   5.572   3.174 -0.8477  0.8098  0.9335
  179SLPC    HB20343   5.893   5.533   3.081 -1.6767 -0.0429  1.4935
  179SLPC    C220344   5.864   5.516   3.291 -0.3739  0.0517 -0.3401
  179SLPC    HS20345   5.803   5.609   3.285 -0.7576 -0.0807  1.0811
  179SLPC   O2120346   5.949   5.507   3.407  0.0346  0.2012 -0.0973
  179SLPC   C2120347   6.017   5.615   3.443  0.2528 -0.3892  0.3350
  179SLPC   O2220348   6.002   5.729   3.399  0.5651  0.2643 -0.0566
  179SLPC   C2220349   6.106   5.590   3.557 -0.0217  0.0407  0.1660
  179SLPC   H2R20350   6.165   5.506   3.514  0.3161 -0.6133  1.8102
  179SLPC   H2S20351   6.169   5.680   3.571 -1.2612  0.8651  0.6100
  179SLPC    C320352   5.761   5.401   3.289  0.3314  0.2888 -0.2443
  179SLPC    HX20353   5.824   5.310   3.295  2.7122  1.8461 -0.3271
  179SLPC    HY20354   5.705   5.409   3.193  0.2187  1.3929 -0.0978
  179SLPC   O3120355   5.658   5.408   3.391  0.1977 -0.5616  0.9941
  179SLPC   C3120356   5.647   5.316   3.487 -0.4666  0.2267 -0.7508
  179SLPC   O3220357   5.733   5.231   3.504 -0.1547  0.0588 -0.0271
  179SLPC   C3220358   5.527   5.336   3.568 -0.4615  0.1345 -0.3977
  179SLPC   H2X20359   5.436   5.296   3.518  0.9327 -2.8052 -0.7948
  179SLPC   H2Y20360   5.519   5.445   3.588  1.7236  0.1970  0.4182
  179SLPC   C2320361   6.045   5.535   3.689 -0.0446  0.1879  0.0579
  179SLPC   H3R20362   5.967   5.604   3.730  2.0162  2.7831 -0.1065
  179SLPC   H3S20363   6.123   5.550   3.766 -1.7406 -0.5085  2.0007
  179SLPC   C2420364   6.001   5.385   3.689  0.1215 -0.1169 -0.2559
  179SLPC   H4R20365   6.089   5.319   3.681 -0.1976 -0.6199  0.2440
  179SLPC   H4S20366   5.934   5.357   3.605 -0.3174  0.1382 -0.0032
  179SLPC   C2520367   5.939   5.347   3.814  0.1013  0.0026 -0.8220
  179SLPC   H5R20368   5.914   5.239   3.826  1.3184 -0.2764 -0.7252
  179SLPC   H5S20369   5.857   5.415   3.846  1.4105  1.4265 -0.3766
  179SLPC   C2620370   6.037   5.357   3.934 -0.0353 -0.1518 -0.7337
  179SLPC   H6R20371   6.069   5.459   3.966  4.3772 -1.7472  0.7335
  179SLPC   H6S20372   6.136   5.312   3.911 -0.2471 -0.4868 -0.9785
  179SLPC   C2720373   5.994   5.279   4.062  0.1940 -0.0220  0.1215
  179SLPC   H7R20374   6.077   5.279   4.136 -0.1553 -1.2100  0.5289
  179SLPC   H7S20375   5.986   5.171   4.040  1.1895 -0.1803  0.4733
  179SLPC   C2820376   5.861   5.327   4.123 -0.1098  0.5730 -0.3447
  179SLPC   H8R20377   5.786   5.346   4.043  0.4584 -0.5449 -1.1723
  179SLPC   H8S20378   5.891   5.431   4.148  3.6903 -0.5780  0.5566
  179SLPC   C2920379   5.819   5.239   4.240 -0.4199 -0.4940 -0.5006
  179SLPC   H9R20380   5.827   5.130   4.229  0.4055 -0.4838 -0.0942
  179SLPC  C21020381   5.776   5.290   4.354 -0.5207 -0.6337 -0.4740
  179SLPC  H10R20382   5.750   5.215   4.430 -1.4414  0.4416  0.2826
  179SLPC  C21120383   5.777   5.428   4.415  0.0965  0.7785  0.1448
  179SLPC  H11R20384   5.742   5.502   4.340  1.5072  3.0305  1.5861
  179SLPC  H11S20385   5.885   5.451   4.432  0.9389 -1.2598 -1.9326
  179SLPC  C21220386   5.700   5.434   4.548  0.5018  0.1408  0.9494
  179SLPC  H12R20387   5.600   5.476   4.530 -0.4732 -1.7618  1.5778
  179SLPC  C21320388   5.730   5.377   4.663 -0.3209  0.1193 -0.6296
  179SLPC  H13R20389   5.656   5.376   4.744 -0.2770  0.1485 -0.5884
  179SLPC  C21420390   5.857   5.297   4.691  0.3248  0.4411 -0.3119
  179SLPC  H14R20391   5.927   5.293   4.605 -0.7553 -0.0776 -1.1891
  179SLPC  H14S20392   5.822   5.197   4.726  0.3426  0.4245 -0.3421
  179SLPC  C21520393   5.953   5.349   4.798 -0.0017 -0.0267  0.0955
  179SLPC  H15R20394   5.984   5.451   4.769  0.3515 -0.2021 -0.1472
  179SLPC  H15S20395   6.048   5.292   4.797 -0.4595 -0.8324  0.6496
  179SLPC  C21620396   5.912   5.343   4.947  0.7443 -0.3194  0.2386
  179SLPC  H16R20397   5.906   5.235   4.971  0.3721 -0.8184 -1.9414
  179SLPC  H16S20398   5.815   5.396   4.962  1.5566  1.9913 -1.9063
  179SLPC  C21720399   6.012   5.420   5.025 -0.2667  0.2360 -0.2367
  179SLPC  H17R20400   6.043   5.518   4.983 -1.0487 -0.3039 -2.2198
  179SLPC  H17S20401   6.102   5.356   5.029 -0.1494  0.4773  2.2909
  179SLPC  C21820402   5.996   5.435   5.175  0.8435  0.8708  0.3798
  179SLPC  H18R20403   5.950   5.344   5.219  2.0774  0.5003  0.9632
  179SLPC  H18S20404   5.935   5.525   5.199 -0.2244 -0.0971  1.4474
  179SLPC  H18T20405   6.099   5.448   5.215  1.0002  0.6872  0.0295
  179SLPC   C3320406   5.535   5.267   3.709 -0.5599 -0.3326 -0.0830
  179SLPC   H3X20407   5.627   5.313   3.752 -1.1637  2.7521 -1.7428
  179SLPC   H3Y20408   5.545   5.157   3.712 -2.1463 -0.4899  2.5369
  179SLPC   C3420409   5.421   5.308   3.795 -0.3910 -0.1861  0.4838
  179SLPC   H4X20410   5.332   5.257   3.754 -0.6955  1.0143 -0.3764
  179SLPC   H4Y20411   5.399   5.417   3.786 -1.5599 -0.4213  0.3982
  179SLPC   C3520412   5.457   5.261   3.934 -0.2332  0.2945  0.1824
  179SLPC   H5X20413   5.466   5.152   3.953 -1.7856  0.0713 -0.2318
  179SLPC   H5Y20414   5.550   5.307   3.974  0.0877 -0.1666 -0.0276
  179SLPC   C3620415   5.354   5.311   4.030  0.8754 -0.9631  0.1571
  179SLPC   H6X20416   5.252   5.268   4.019 -0.5126  1.8170  1.2032
  179SLPC   H6Y20417   5.328   5.417   4.009 -1.1038 -1.2672  0.8687
  179SLPC   C3720418   5.384   5.292   4.186  0.2289 -0.2257  0.7483
  179SLPC   H7X20419   5.487   5.333   4.193 -0.2880  1.0899  0.9184
  179SLPC   H7Y20420   5.396   5.182   4.202  0.3858 -0.7816 -2.5103
  179SLPC   C3820421   5.293   5.368   4.282 -0.5617 -0.2890 -0.6132
  179SLPC   H8X20422   5.186   5.341   4.271 -0.6092 -0.2343 -0.2916
  179SLPC   H8Y20423   5.317   5.472   4.251  1.6576 -0.5219  0.1597
  179SLPC   C3920424   5.335   5.348   4.427  0.2425  0.3391 -0.4206
  179SLPC   H9X20425   5.439   5.374   4.457  0.1010  0.2261  0.1847
  179SLPC   H9Y20426   5.325   5.240   4.454  0.2260  0.8360  1.7475
  179SLPC  C31020427   5.247   5.424   4.534  0.4367  0.6330  0.3946
  179SLPC  H10X20428   5.136   5.413   4.524  0.5127  0.7022 -0.6613
  179SLPC  H10Y20429   5.257   5.532   4.514 -1.4633  0.7201 -0.3599
  179SLPC  C31120430   5.293   5.394   4.678 -0.0409 -1.0346  0.2593
  179SLPC  H11X20431   5.401   5.421   4.684 -0.4472  0.5369  0.8199
  179SLPC  H11Y20432   5.275   5.286   4.698 -0.7490 -1.1325 -0.8446
  179SLPC  C31220433   5.231   5.484   4.778  0.0572  0.1642 -0.4461
  179SLPC  H12X20434   5.122   5.464   4.790  0.2969  0.1104  2.2363
  179SLPC  H12Y20435   5.244   5.591   4.753 -0.9623  0.5475  0.6185
  179SLPC  C31320436   5.279   5.456   4.920  0.2349 -0.8841 -0.2684
  179SLPC  H13X20437   5.382   5.495   4.933 -0.8696  1.6938  1.6196
  179SLPC  H13Y20438   5.289   5.345   4.928  2.6776 -0.6035  1.4944
  179SLPC  C31420439   5.189   5.514   5.029  0.5447  0.5448 -0.5158
  179SLPC  H14X20440   5.094   5.458   5.040  1.0791 -0.1422  0.8926
  179SLPC  H14Y20441   5.171   5.618   4.992 -0.1564 -0.0334 -1.8479
  179SLPC  C31520442   5.239   5.529   5.171  0.3323 -0.5201  0.1823
  179SLPC  H15X20443   5.336   5.584   5.174  0.8831 -1.4158  3.6662
  179SLPC  H15Y20444   5.254   5.423   5.201 -0.7755 -0.5480  0.6631
  179SLPC  C31620445   5.141   5.618   5.262 -0.1410 -0.2479  0.1086
  179SLPC  H16X20446   5.050   5.562   5.290 -1.7013  1.7954 -0.6109
  179SLPC  H16Y20447   5.113   5.711   5.207 -0.7249 -0.8596 -0.6586
  179SLPC  C31720448   5.210   5.659   5.398 -0.7472  1.1764 -0.7179
  179SLPC  H17X20449   5.138   5.727   5.449 -0.5078 -0.1024  1.4487
  179SLPC  H17Y20450   5.305   5.716   5.391 -0.4656  0.5364 -3.0279
  179SLPC  C31820451   5.231   5.525   5.477  0.2022  0.0215  0.7370
  179SLPC  H18X20452   5.322   5.478   5.435  0.5503  1.8166 -0.6532
  179SLPC  H18Y20453   5.148   5.458   5.445  0.6138  0.0394 -0.4058
  179SLPC  H18Z20454   5.243   5.553   5.584 -1.5006  1.0974  0.6929
  180SLPC     N20455   4.810   5.221   3.050  0.5688  0.4744  0.6144
  180SLPC   C1320456   4.927   5.152   3.088 -0.3674 -0.0921 -0.1407
  180SLPC  H13A20457   5.011   5.220   3.084 -0.0803 -0.4072  0.4765
  180SLPC  H13B20458   4.926   5.116   3.190  0.3464 -0.9182 -0.4142
  180SLPC  H13C20459   4.948   5.068   3.023  0.5594 -0.1700  0.2505
  180SLPC   C1420460   4.823   5.261   2.903 -0.8262  0.4724  0.3219
  180SLPC  H14A20461   4.860   5.187   2.835 -2.5834  0.4512 -0.6765
  180SLPC  H14B20462   4.728   5.292   2.860  0.5909  1.0273 -2.6957
  180SLPC  H14C20463   4.893   5.341   2.884 -1.4373  0.6305 -1.5120
  180SLPC   C1520464   4.799   5.347   3.125 -1.1316 -0.2576 -0.9977
  180SLPC  H15A20465   4.882   5.414   3.109 -0.8091  0.4769  2.9235
  180SLPC  H15B20466   4.707   5.403   3.117 -2.1788 -1.7945 -0.2083
  180SLPC  H15C20467   4.799   5.318   3.229  0.0678  0.2946 -0.8350
  180SLPC   C1220468   4.687   5.135   3.082  0.4988 -0.4253  0.3500
  180SLPC  H12A20469   4.698   5.043   3.027 -0.2381  0.3408 -1.1408
  180SLPC  H12B20470   4.607   5.187   3.031  2.2155  2.5742  0.4400
  180SLPC   C1120471   4.658   5.112   3.232  0.0685  0.8605 -0.2006
  180SLPC  H11A20472   4.746   5.071   3.288  0.3210  1.5432 -0.0900
  180SLPC  H11B20473   4.585   5.029   3.235  1.6445 -0.5878  2.1753
  180SLPC     P20474   4.450   5.243   3.328  0.3583 -0.4698  0.5301
  180SLPC   O1320475   4.386   5.315   3.218  0.2966  0.4503 -0.3634
  180SLPC   O1420476   4.383   5.121   3.369 -0.1644  0.5055  0.0063
  180SLPC   O1220477   4.607   5.229   3.302 -0.6387  1.0897  0.7059
  180SLPC   O1120478   4.463   5.338   3.451 -0.3965  0.0444 -0.0000
  180SLPC    C120479   4.526   5.468   3.429  0.4954 -0.3171 -0.6293
  180SLPC    HA20480   4.636   5.457   3.446  0.7176  0.6327 -1.3179
  180SLPC    HB20481   4.516   5.502   3.324 -2.2309 -1.9924 -0.9964
  180SLPC    C220482   4.469   5.581   3.523  0.0285  0.0814  0.2430
  180SLPC    HS20483   4.514   5.680   3.503  0.2518  0.4325  2.2975
  180SLPC   O2120484   4.468   5.535   3.664  1.1744  0.1085 -0.1808
  180SLPC   C2120485   4.582   5.538   3.723  0.3385  0.0597 -0.2450
  180SLPC   O2220486   4.678   5.609   3.693  0.1569  0.0418 -0.3086
  180SLPC   C2220487   4.579   5.438   3.840 -0.4389  0.0394  0.5166
  180SLPC   H2R20488   4.577   5.337   3.795 -1.5649 -0.3872  1.4766
  180SLPC   H2S20489   4.672   5.442   3.900  0.0470  0.3305 -0.2409
  180SLPC    C320490   4.318   5.602   3.487  0.3015 -0.0259 -0.1923
  180SLPC    HX20491   4.259   5.508   3.494 -2.2783  1.6209  2.0740
  180SLPC    HY20492   4.307   5.625   3.379 -0.7349  1.2291  0.1511
  180SLPC   O3120493   4.259   5.696   3.576  0.0611 -0.1799  0.1608
  180SLPC   C3120494   4.247   5.820   3.527  0.4105 -0.0324  0.0186
  180SLPC   O3220495   4.296   5.867   3.427  0.1136 -0.1712  0.0228
  180SLPC   C3220496   4.145   5.892   3.607 -0.2878 -0.0721  0.1061
  180SLPC   H2X20497   4.061   5.825   3.636 -0.2779  0.1307  0.6167
  180SLPC   H2Y20498   4.086   5.968   3.550 -0.0469  0.0893  0.0688
  180SLPC   C2320499   4.465   5.464   3.940  0.8810 -0.0317 -0.5354
  180SLPC   H3R20500   4.376   5.411   3.899  0.8155  0.9357 -1.6881
  180SLPC   H3S20501   4.438   5.572   3.945 -3.9641 -1.0292  0.4086
  180SLPC   C2420502   4.497   5.432   4.093 -0.1810 -0.1024 -0.8661
  180SLPC   H4R20503   4.581   5.494   4.130 -0.0768  1.4612 -3.4635
  180SLPC   H4S20504   4.521   5.325   4.112  1.1827  0.5638  1.6105
  180SLPC   C2520505   4.371   5.457   4.185  0.5028  0.1003  0.5819
  180SLPC   H5R20506   4.285   5.399   4.146  0.8970 -1.1268  1.4798
  180SLPC   H5S20507   4.331   5.560   4.179 -0.1569 -0.1275  0.9798
  180SLPC   C2620508   4.412   5.426   4.334 -0.1187  0.1044  0.0380
  180SLPC   H6R20509   4.482   5.505   4.367 -1.1249  0.9161  0.2935
  180SLPC   H6S20510   4.452   5.323   4.341 -0.2508  0.0767  0.4034
  180SLPC   C2720511   4.286   5.431   4.426 -0.5899  0.6104  0.7000
  180SLPC   H7R20512   4.219   5.354   4.383  0.7783 -0.2811  0.0886
  180SLPC   H7S20513   4.239   5.531   4.413 -0.1252  0.6226 -1.2423
  180SLPC   C2820514   4.314   5.386   4.565  0.1931 -0.0546  0.1736
  180SLPC   H8R20515   4.264   5.453   4.639 -2.7073  0.3528 -1.9961
  180SLPC   H8S20516   4.423   5.411   4.568 -0.0579  1.1082  0.1778
  180SLPC   C2920517   4.295   5.238   4.588 -0.5795 -1.1708  0.0627
  180SLPC   H9R20518   4.372   5.168   4.551 -1.2083 -1.6789 -0.3131
  180SLPC  C21020519   4.210   5.187   4.676  0.1959 -0.0010 -0.3499
  180SLPC  H10R20520   4.188   5.079   4.678 -1.1522  0.2661  0.3812
  180SLPC  C21120521   4.107   5.275   4.743 -0.7669 -0.6896 -0.7783
  180SLPC  H11R20522   4.053   5.337   4.668 -2.1264 -0.1924  0.5516
  180SLPC  H11S20523   4.165   5.350   4.802 -0.0524 -0.8208 -1.2962
  180SLPC  C21220524   4.015   5.191   4.831 -0.0615 -0.4451 -0.1955
  180SLPC  H12R20525   4.050   5.088   4.847  0.6649 -0.3639 -1.1480
  180SLPC  C21320526   3.901   5.246   4.887  0.4523  0.3249  0.3367
  180SLPC  H13R20527   3.851   5.181   4.959 -2.4988  2.0871  0.0346
  180SLPC  C21420528   3.848   5.386   4.877  0.3614 -0.3678 -0.4456
  180SLPC  H14R20529   3.739   5.391   4.896  0.2748  0.4262 -1.1018
  180SLPC  H14S20530   3.856   5.430   4.776 -1.4420 -0.0433 -0.4755
  180SLPC  C21520531   3.919   5.485   4.973  0.7013 -0.2711  0.0982
  180SLPC  H15R20532   3.899   5.588   4.938  0.7219  0.6337  2.5251
  180SLPC  H15S20533   4.030   5.487   4.973  0.6908  0.9127  0.0247
  180SLPC  C21620534   3.865   5.492   5.116 -0.3388 -0.0315  0.6384
  180SLPC  H16R20535   3.926   5.421   5.176  0.6710 -0.0398 -0.3672
  180SLPC  H16S20536   3.759   5.458   5.129 -0.9976  2.3604  2.0557
  180SLPC  C21720537   3.888   5.626   5.182  0.6286 -0.0559 -0.3190
  180SLPC  H17R20538   3.829   5.705   5.129 -0.5746 -0.5376  0.2516
  180SLPC  H17S20539   3.995   5.652   5.166  0.1907  1.8340 -0.4872
  180SLPC  C21820540   3.851   5.631   5.335 -0.2838  0.1302 -0.2059
  180SLPC  H18R20541   3.744   5.647   5.358 -0.2698  0.5861 -0.4567
  180SLPC  H18S20542   3.889   5.730   5.368 -0.5932  0.1114  0.2145
  180SLPC  H18T20543   3.882   5.548   5.402 -1.6807 -0.2768 -0.0396
  180SLPC   C3320544   4.201   5.969   3.729 -0.0308  0.1796  0.3562
  180SLPC   H3X20545   4.125   6.043   3.763  2.2493  2.0879  1.5684
  180SLPC   H3Y20546   4.287   6.030   3.694 -0.4566 -1.2681 -3.7884
  180SLPC   C3420547   4.234   5.873   3.846 -0.6100  0.5108 -0.2506
  180SLPC   H4X20548   4.273   5.782   3.796 -1.5988  0.1376 -0.3591
  180SLPC   H4Y20549   4.136   5.845   3.891 -1.5603  1.0369 -1.9292
  180SLPC   C3520550   4.339   5.928   3.943 -0.0592 -0.3315 -0.1345
  180SLPC   H5X20551   4.322   6.037   3.956  2.0792  0.3641 -2.4385
  180SLPC   H5Y20552   4.435   5.914   3.889 -1.1918 -0.3852 -2.2745
  180SLPC   C3620553   4.347   5.869   4.084  0.3982  0.1707  0.1292
  180SLPC   H6X20554   4.376   5.761   4.082 -0.0478  0.0549 -0.8138
  180SLPC   H6Y20555   4.249   5.868   4.137  0.1655  1.6485 -0.2387
  180SLPC   C3720556   4.445   5.958   4.150 -0.5455  0.4053 -0.0588
  180SLPC   H7X20557   4.398   6.059   4.149 -1.0975  0.1500 -0.2009
  180SLPC   H7Y20558   4.539   5.943   4.092 -0.6972 -1.7387  0.1843
  180SLPC   C3820559   4.467   5.917   4.296 -0.4195  0.4133  0.6955
  180SLPC   H8X20560   4.515   5.817   4.307 -0.5134  0.2065 -0.5586
  180SLPC   H8Y20561   4.366   5.906   4.340 -0.9999 -0.0116 -0.6835
  180SLPC   C3920562   4.546   6.021   4.378  0.3212  0.4203 -0.2498
  180SLPC   H9X20563   4.481   6.111   4.373 -0.5019  0.0630  2.4723
  180SLPC   H9Y20564   4.649   6.030   4.337 -0.3844 -0.1873 -2.2952
  180SLPC  C31020565   4.551   5.982   4.532 -0.1145 -0.2668 -0.6123
  180SLPC  H10X20566   4.633   5.910   4.550  0.9001  1.5440  3.1250
  180SLPC  H10Y20567   4.453   5.940   4.562  0.1546 -0.0467  0.6443
  180SLPC  C31120568   4.567   6.099   4.630 -0.0521 -0.1267  0.2670
  180SLPC  H11X20569   4.497   6.179   4.598 -1.8299 -0.4478  2.9947
  180SLPC  H11Y20570   4.670   6.140   4.632  0.1663 -0.6464 -0.0702
  180SLPC  C31220571   4.541   6.056   4.774 -0.3681  0.4520  0.1808
  180SLPC  H12X20572   4.612   5.971   4.783 -0.2253  0.4622 -0.7177
  180SLPC  H12Y20573   4.442   6.018   4.808 -0.7254  1.9127  0.8508
  180SLPC  C31320574   4.569   6.165   4.880 -0.2795 -0.0925  0.0430
  180SLPC  H13X20575   4.489   6.240   4.867  0.0845  0.2387 -0.3116
  180SLPC  H13Y20576   4.674   6.198   4.864  0.2722 -1.7563  0.0397
  180SLPC  C31420577   4.574   6.119   5.023  0.0687 -0.1723  0.1596
  180SLPC  H14X20578   4.652   6.040   5.023  0.9752  0.6914 -0.3437
  180SLPC  H14Y20579   4.486   6.056   5.048 -1.2862  0.0023 -3.5321
  180SLPC  C31520580   4.602   6.221   5.132 -0.1041  0.2199 -0.4837
  180SLPC  H15X20581   4.521   6.218   5.208  1.4469 -1.1136  1.2159
  180SLPC  H15Y20582   4.615   6.317   5.078  1.2209 -0.8012 -2.0992
  180SLPC  C31620583   4.733   6.185   5.200  0.2109  0.6407 -0.6479
  180SLPC  H16X20584   4.765   6.277   5.255  0.3464  0.2109  0.0028
  180SLPC  H16Y20585   4.811   6.162   5.125  0.1017 -1.0816 -0.2642
  180SLPC  C31720586   4.718   6.058   5.282 -0.2029  0.9228  0.0703
  180SLPC  H17X20587   4.819   6.028   5.317 -0.1307  0.7883 -0.2481
  180SLPC  H17Y20588   4.676   5.971   5.227  1.0751 -0.7249  1.5755
  180SLPC  C31820589   4.634   6.076   5.412  0.6716 -0.6789 -0.2244
  180SLPC  H18X20590   4.651   5.987   5.476 -0.0905 -3.1025 -3.1649
  180SLPC  H18Y20591   4.525   6.089   5.394  0.5099  0.7651  1.5242
  180SLPC  H18Z20592   4.661   6.164   5.474  1.1841  0.3333 -1.8122
  181SLPC     N20593   4.255   4.413   3.098  0.1547 -0.0887 -0.3404
  181SLPC   C1320594   4.195   4.279   3.069  0.3229  0.2829 -0.5584
  181SLPC  H13A20595   4.087   4.289   3.070  0.1112 -1.6893  0.5105
  181SLPC  H13B20596   4.233   4.236   2.978  1.1304 -2.0595  0.7823
  181SLPC  H13C20597   4.223   4.219   3.154  2.1763  1.4433 -0.2952
  181SLPC   C1420598   4.206   4.490   2.984  0.0882  0.0472  0.1781
  181SLPC  H14A20599   4.239   4.592   3.001  0.3119 -0.3697  2.4965
  181SLPC  H14B20600   4.246   4.440   2.897 -1.4726 -0.7761 -0.1009
  181SLPC  H14C20601   4.099   4.500   2.971 -0.3949 -0.8249  2.9046
  181SLPC   C1520602   4.406   4.409   3.095 -0.1612  0.7973 -0.0125
  181SLPC  H15A20603   4.445   4.509   3.084  1.3441  0.1053 -1.2724
  181SLPC  H15B20604   4.447   4.379   3.190 -0.3792  2.0956  0.5181
  181SLPC  H15C20605   4.456   4.347   3.022  0.4680 -1.3398  2.0965
  181SLPC   C1220606   4.204   4.470   3.232  0.4164 -0.1652 -0.4587
  181SLPC  H12A20607   4.096   4.478   3.227  0.5217  0.8883 -1.7723
  181SLPC  H12B20608   4.232   4.575   3.238 -0.7455  0.1832 -0.8160
  181SLPC   C1120609   4.252   4.388   3.356  0.4308 -0.3873  0.1200
  181SLPC  H11A20610   4.230   4.283   3.327 -1.7795 -0.1992  0.8883
  181SLPC  H11B20611   4.192   4.400   3.448 -0.2480 -0.8080 -0.2608
  181SLPC     P20612   4.476   4.292   3.461  0.0950 -0.0846  0.0231
  181SLPC   O1320613   4.511   4.178   3.372  0.1835  0.7789 -0.0627
  181SLPC   O1420614   4.578   4.373   3.534  0.2766  0.3132 -0.1399
  181SLPC   O1220615   4.390   4.400   3.389  0.6274 -0.1893  0.4574
  181SLPC   O1120616   4.361   4.254   3.564  0.9023  0.2275 -0.1671
  181SLPC    C120617   4.338   4.352   3.671  0.2004 -0.3531 -0.4274
  181SLPC    HA20618   4.426   4.343   3.738  1.0507 -0.6039 -1.5389
  181SLPC    HB20619   4.335   4.459   3.642  2.8000  0.5589  2.1809
  181SLPC    C220620   4.208   4.326   3.757 -0.3010 -0.6130  0.0340
  181SLPC    HS20621   4.112   4.308   3.703 -0.0058  0.3490 -0.8520
  181SLPC   O2120622   4.191   4.424   3.862 -0.3767 -0.0040 -0.5360
  181SLPC   C2120623   4.133   4.533   3.825 -0.4860  0.0834  0.5622
  181SLPC   O2220624   4.088   4.561   3.713  0.0546 -0.0055  0.3132
  181SLPC   C2220625   4.123   4.628   3.949  0.0975 -0.8350 -0.4298
  181SLPC   H2R20626   4.177   4.720   3.918 -0.7212 -0.5352 -1.0029
  181SLPC   H2S20627   4.015   4.649   3.936  0.4225 -0.0242 -2.0862
  181SLPC    C320628   4.214   4.182   3.829 -0.4712 -0.3778  0.9190
  181SLPC    HX20629   4.320   4.175   3.860 -0.2054  1.6910  0.5929
  181SLPC    HY20630   4.194   4.107   3.750  1.9324  1.7014 -1.8639
  181SLPC   O3120631   4.122   4.160   3.936  0.1208 -0.4644  0.0649
  181SLPC   C3120632   4.161   4.208   4.057 -0.2814  0.4626  0.0093
  181SLPC   O3220633   4.276   4.230   4.086 -0.5849  0.1973  0.6145
  181SLPC   C3220634   4.045   4.222   4.151  0.2469 -0.0538  0.0309
  181SLPC   H2X20635   3.993   4.124   4.159 -2.2286  0.8175 -3.2442
  181SLPC   H2Y20636   3.974   4.290   4.100  1.9862  1.5503 -0.3553
  181SLPC   C2320637   4.167   4.571   4.088 -0.5957 -0.8336  0.9254
  181SLPC   H3R20638   4.274   4.544   4.076 -0.8698 -1.7908  0.5768
  181SLPC   H3S20639   4.103   4.490   4.128 -1.4917 -1.7265 -2.0678
  181SLPC   C2420640   4.171   4.687   4.187 -0.2199 -0.4031 -0.2539
  181SLPC   H4R20641   4.216   4.776   4.138 -1.9785  0.7238  0.0710
  181SLPC   H4S20642   4.234   4.660   4.274  0.4076  1.7716  0.0226
  181SLPC   C2520643   4.035   4.731   4.248  0.2143  0.2007  0.6866
  181SLPC   H5R20644   3.968   4.649   4.279 -0.0119  0.5441  1.1170
  181SLPC   H5S20645   3.975   4.769   4.162  0.3008 -0.6950  0.2226
  181SLPC   C2620646   4.042   4.834   4.360 -0.5279 -0.1048  0.5137
  181SLPC   H6R20647   4.114   4.908   4.319 -0.2599 -2.0186 -2.9403
  181SLPC   H6S20648   4.089   4.785   4.448 -0.4662 -0.2196  0.4184
  181SLPC   C2720649   3.912   4.893   4.387  0.1200  0.2409 -0.5082
  181SLPC   H7R20650   3.853   4.804   4.418  1.1296  0.1710  1.3452
  181SLPC   H7S20651   3.867   4.930   4.293 -0.7986 -0.6583 -0.4368
  181SLPC   C2820652   3.912   4.996   4.497  0.6064 -0.0871 -0.3563
  181SLPC   H8R20653   3.994   5.068   4.474  1.8036 -1.8274 -1.8053
  181SLPC   H8S20654   3.938   4.953   4.596 -0.1438 -2.0877 -0.9680
  181SLPC   C2920655   3.779   5.058   4.512 -0.4468  0.1459  0.8467
  181SLPC   H9R20656   3.707   4.986   4.554  0.2966 -1.9248 -1.1853
  181SLPC  C21020657   3.752   5.184   4.475 -0.0397  1.1608 -0.6438
  181SLPC  H10R20658   3.651   5.219   4.501 -0.4971  0.9413 -2.0326
  181SLPC  C21120659   3.841   5.276   4.398 -0.1275  0.4585  0.3810
  181SLPC  H11R20660   3.949   5.260   4.420  0.2945 -0.0074 -1.7396
  181SLPC  H11S20661   3.818   5.380   4.428  3.3130  1.0376  1.4640
  181SLPC  C21220662   3.815   5.259   4.245  0.9386 -0.6432  1.3600
  181SLPC  H12R20663   3.718   5.297   4.210  1.0745  2.1610  3.6622
  181SLPC  C21320664   3.903   5.217   4.146 -0.3139 -0.8052 -1.0939
  181SLPC  H13R20665   3.868   5.198   4.044 -0.6308  0.0835 -1.1658
  181SLPC  C21420666   4.047   5.174   4.180 -0.0259 -0.9519 -0.2703
  181SLPC  H14R20667   4.046   5.128   4.281 -0.0708 -0.4940 -0.0579
  181SLPC  H14S20668   4.114   5.263   4.185 -0.8196 -0.1688 -2.2964
  181SLPC  C21520669   4.124   5.092   4.075 -0.1723  0.2294  0.2531
  181SLPC  H15R20670   4.118   5.137   3.974  0.1687  0.2335  0.2331
  181SLPC  H15S20671   4.088   4.987   4.075 -1.7114  0.6871 -2.3010
  181SLPC  C21620672   4.272   5.083   4.109 -0.4436  0.2713  0.7791
  181SLPC  H16R20673   4.279   5.018   4.199 -1.0783  0.0469  0.6739
  181SLPC  H16S20674   4.302   5.187   4.136 -0.6850  0.1770  1.4364
  181SLPC  C21720675   4.357   5.020   3.996  0.3594  0.2091  0.1872
  181SLPC  H17R20676   4.321   5.044   3.894  1.2245 -0.4217 -0.2809
  181SLPC  H17S20677   4.357   4.910   4.007  0.6547 -0.0233 -1.7527
  181SLPC  C21820678   4.502   5.063   3.997 -0.0355 -0.0949 -0.2751
  181SLPC  H18R20679   4.533   5.075   4.102  1.9509  0.5231 -0.8898
  181SLPC  H18S20680   4.530   5.158   3.946  0.3178  0.9427  1.7839
  181SLPC  H18T20681   4.568   4.981   3.962 -0.6617 -1.2716  1.2164
  181SLPC   C3320682   4.075   4.289   4.292  0.0749  0.3951 -0.2460
  181SLPC   H3X20683   4.164   4.354   4.287 -0.2316  1.0288  1.7215
  181SLPC   H3Y20684   4.086   4.202   4.359  0.1135  1.0035  0.5525
  181SLPC   C3420685   3.962   4.373   4.345  0.1887 -0.0006 -0.7285
  181SLPC   H4X20686   3.868   4.317   4.362 -0.3891  1.5171  1.6722
  181SLPC   H4Y20687   3.931   4.449   4.270  0.4915  0.3582 -0.4962
  181SLPC   C3520688   4.015   4.446   4.478 -0.1139  0.2193  0.2970
  181SLPC   H5X20689   3.927   4.500   4.518 -0.5572  0.9902 -1.6200
  181SLPC   H5Y20690   4.092   4.516   4.440 -0.7801  0.8805  0.1545
  181SLPC   C3620691   4.071   4.359   4.587  0.0488 -0.4103 -0.2705
  181SLPC   H6X20692   4.104   4.425   4.670 -2.4875  1.7843 -0.8791
  181SLPC   H6Y20693   4.164   4.310   4.550  0.0379  0.5329 -1.6418
  181SLPC   C3720694   3.976   4.257   4.647  0.4570 -0.5635 -0.0373
  181SLPC   H7X20695   3.912   4.222   4.562 -0.4361 -0.0841  0.4230
  181SLPC   H7Y20696   3.903   4.309   4.713 -0.4511  0.9572 -2.1269
  181SLPC   C3820697   4.054   4.143   4.714 -0.3638  0.0281 -0.6638
  181SLPC   H8X20698   4.129   4.189   4.782  1.0392 -0.8102 -1.5772
  181SLPC   H8Y20699   4.113   4.090   4.636 -1.0691  1.7130 -2.4236
  181SLPC   C3920700   3.962   4.034   4.774  0.7458 -0.5537  0.7271
  181SLPC   H9X20701   3.910   3.989   4.687  4.2869 -0.5472 -1.5915
  181SLPC   H9Y20702   3.878   4.075   4.834  0.9012  0.6068  0.1824
  181SLPC  C31020703   4.015   3.916   4.856  0.5533 -0.4261 -0.9234
  181SLPC  H10X20704   4.049   3.981   4.939 -2.0271  3.1671 -2.4284
  181SLPC  H10Y20705   4.094   3.853   4.809 -0.3998 -2.1067 -0.3662
  181SLPC  C31120706   3.889   3.830   4.891  0.5738 -0.0709  0.7282
  181SLPC  H11X20707   3.837   3.806   4.796  0.1495  3.2441 -0.0184
  181SLPC  H11Y20708   3.828   3.901   4.952  1.2525  0.2279  1.0731
  181SLPC  C31220709   3.934   3.714   4.981 -0.7618 -0.7022  0.7342
  181SLPC  H12X20710   4.002   3.730   5.067 -0.1805 -1.4190  0.4203
  181SLPC  H12Y20711   3.992   3.651   4.910 -0.6221  0.9364 -0.6590
  181SLPC  C31320712   3.823   3.626   5.043 -0.4332  0.3339 -0.1446
  181SLPC  H13X20713   3.872   3.539   5.093  0.5506  2.3130  2.5150
  181SLPC  H13Y20714   3.759   3.581   4.964  1.6466  0.7253 -2.1429
  181SLPC  C31420715   3.738   3.715   5.128 -0.0748 -0.6296 -0.6195
  181SLPC  H14X20716   3.667   3.652   5.186  2.9987 -3.0670  0.7748
  181SLPC  H14Y20717   3.674   3.786   5.071  0.4497  0.8702  0.6060
  181SLPC  C31520718   3.815   3.814   5.223  0.2400  0.4190  0.5770
  181SLPC  H15X20719   3.874   3.886   5.162  1.2352  0.2170  1.2764
  181SLPC  H15Y20720   3.898   3.757   5.270  2.1578  3.5250  1.2006
  181SLPC  C31620721   3.731   3.896   5.312 -1.1054  0.2237  0.1885
  181SLPC  H16X20722   3.794   3.953   5.385 -0.0326  1.0801 -1.3376
  181SLPC  H16Y20723   3.660   3.829   5.365 -0.0705 -1.0726 -0.0222
  181SLPC  C31720724   3.643   3.997   5.241  0.3941  0.2537  0.1181
  181SLPC  H17X20725   3.573   4.045   5.313  0.5493  2.6632 -1.2432
  181SLPC  H17Y20726   3.575   3.939   5.175 -0.2427 -0.5262  1.4005
  181SLPC  C31820727   3.719   4.108   5.166 -0.0655 -0.2714 -0.4006
  181SLPC  H18X20728   3.757   4.191   5.230 -2.4713  0.6222 -0.0304
  181SLPC  H18Y20729   3.646   4.159   5.100 -0.6372  0.3214  0.6634
  181SLPC  H18Z20730   3.796   4.060   5.102 -0.6430 -0.4487 -0.9632
  182SLPC     N20731   1.259   3.146   2.896 -0.7212 -1.0304 -0.4825
  182SLPC   C1320732   1.166   3.146   2.787 -0.3381  0.4185 -0.0774
  182SLPC  H13A20733   1.200   3.209   2.706  2.6277 -2.1714 -1.0465
  182SLPC  H13B20734   1.151   3.051   2.739 -1.1387  1.4648 -2.0201
  182SLPC  H13C20735   1.066   3.173   2.818  0.0909  1.4754  0.4722
  182SLPC   C1420736   1.390   3.115   2.838 -0.2483 -0.3989  0.0966
  182SLPC  H14A20737   1.428   3.191   2.772 -1.1742 -1.0414 -1.2331
  182SLPC  H14B20738   1.462   3.086   2.913 -0.7659 -1.6678  0.1221
  182SLPC  H14C20739   1.381   3.022   2.782 -1.1463 -0.9617  1.1521
  182SLPC   C1520740   1.227   3.038   2.988 -0.0330 -0.1418 -0.0782
  182SLPC  H15A20741   1.125   3.056   3.019  0.0916  0.1013  0.1984
  182SLPC  H15B20742   1.212   2.940   2.946 -2.9390  1.1544 -2.4312
  182SLPC  H15C20743   1.285   3.030   3.079  1.9188  0.6007 -1.1791
  182SLPC   C1220744   1.261   3.282   2.962 -0.6639  0.6679  0.5689
  182SLPC  H12A20745   1.283   3.357   2.887  0.2558  1.0091  1.1584
  182SLPC  H12B20746   1.341   3.275   3.034  0.0132 -0.2363 -0.2349
  182SLPC   C1120747   1.131   3.332   3.034  0.2469  0.2320  0.1326
  182SLPC  H11A20748   1.138   3.438   3.065 -1.1528  0.8102 -1.4014
  182SLPC  H11B20749   1.115   3.267   3.123 -0.1005  0.2293  0.0701
  182SLPC     P20750   0.878   3.259   2.989 -0.2321 -0.1657  0.1179
  182SLPC   O1320751   0.798   3.236   2.870 -0.4148  0.6171  0.3883
  182SLPC   O1420752   0.901   3.134   3.068  0.0131  0.1611  0.0227
  182SLPC   O1220753   1.013   3.330   2.950 -0.1043 -0.3397 -0.5330
  182SLPC   O1120754   0.806   3.370   3.079 -0.5261  0.5071 -0.4452
  182SLPC    C120755   0.737   3.488   3.035  0.5496  0.0722  0.2601
  182SLPC    HA20756   0.676   3.468   2.945 -0.3595 -1.2390  1.1363
  182SLPC    HB20757   0.662   3.512   3.114  0.9239  0.6133  0.4612
  182SLPC    C220758   0.836   3.610   3.026  0.3937  0.2034 -0.8212
  182SLPC    HS20759   0.905   3.576   2.946  1.1191  0.0211 -0.1319
  182SLPC   O2120760   0.912   3.617   3.152  0.0150 -0.6378  0.0711
  182SLPC   C2120761   1.031   3.674   3.133  0.3915 -0.8240 -0.5092
  182SLPC   O2220762   1.071   3.713   3.026 -0.2215  0.3162  0.2611
  182SLPC   C2220763   1.117   3.671   3.262 -0.1805  0.3447  0.2142
  182SLPC   H2R20764   1.138   3.568   3.298  0.0210  0.0458 -0.7182
  182SLPC   H2S20765   1.212   3.724   3.239  0.1736 -0.1548  0.5103
  182SLPC    C320766   0.767   3.747   2.996  0.1194  0.3230  0.7099
  182SLPC    HX20767   0.721   3.732   2.896 -1.7543 -1.2707  1.7571
  182SLPC    HY20768   0.841   3.829   2.988  0.9871 -0.4671  0.3209
  182SLPC   O3120769   0.656   3.767   3.088 -0.5384  0.1303  0.0602
  182SLPC   C3120770   0.679   3.859   3.184 -1.0614  0.7313 -0.3329
  182SLPC   O3220771   0.769   3.941   3.182  0.3319 -0.4471 -0.8176
  182SLPC   C3220772   0.571   3.847   3.289 -0.7701 -0.1360 -0.1064
  182SLPC   H2X20773   0.473   3.827   3.241 -0.0909 -1.7938 -0.8705
  182SLPC   H2Y20774   0.567   3.945   3.343  0.2114 -0.5600  0.7676
  182SLPC   C2320775   1.051   3.757   3.367 -0.6065 -0.9759 -0.5596
  182SLPC   H3R20776   0.942   3.738   3.374 -0.8414  0.2810 -0.6014
  182SLPC   H3S20777   1.073   3.865   3.351 -0.0261 -1.1162 -0.7078
  182SLPC   C2420778   1.116   3.742   3.507  0.2519 -0.2431 -0.0651
  182SLPC   H4R20779   1.227   3.742   3.504  0.3035  0.0169  1.3490
  182SLPC   H4S20780   1.097   3.640   3.548 -0.3671  0.7664  2.3573
  182SLPC   C2520781   1.054   3.838   3.606 -0.3434  0.0484  0.0360
  182SLPC   H5R20782   1.043   3.940   3.561  0.2541 -0.9216 -2.4730
  182SLPC   H5S20783   1.120   3.861   3.692 -0.4586  1.1838 -0.1507
  182SLPC   C2620784   0.918   3.784   3.662 -0.4666 -0.9396 -0.5924
  182SLPC   H6R20785   0.902   3.674   3.661 -0.6004 -0.9661  1.2305
  182SLPC   H6S20786   0.845   3.819   3.586 -0.3951 -1.3117 -0.8395
  182SLPC   C2720787   0.902   3.811   3.811  0.0895  0.4435  0.3457
  182SLPC   H7R20788   0.920   3.918   3.834  1.7938 -0.2103  2.3796
  182SLPC   H7S20789   0.984   3.753   3.858  0.8170  1.4174  0.2893
  182SLPC   C2820790   0.765   3.761   3.867  0.5796 -0.7294 -0.4682
  182SLPC   H8R20791   0.689   3.827   3.820  1.8904  2.0967  1.0605
  182SLPC   H8S20792   0.783   3.790   3.973 -0.5698  0.0500 -0.4648
  182SLPC   C2920793   0.726   3.616   3.864 -0.5623 -0.1907  0.0974
  182SLPC   H9R20794   0.642   3.596   3.797  2.2711  0.7589 -4.1100
  182SLPC  C21020795   0.792   3.515   3.924  0.2333 -0.0644  0.6675
  182SLPC  H10R20796   0.751   3.413   3.919 -1.0134  0.4846 -1.7090
  182SLPC  C21120797   0.935   3.538   3.971  0.2841 -0.0756 -0.3449
  182SLPC  H11R20798   0.955   3.635   4.022  1.1056  0.3123 -1.3535
  182SLPC  H11S20799   1.004   3.534   3.884  1.6300 -1.5059  0.7235
  182SLPC  C21220800   0.974   3.418   4.056 -0.4000  0.5119 -0.4366
  182SLPC  H12R20801   1.039   3.346   4.003  1.2623  1.5567  0.1162
  182SLPC  C21320802   0.934   3.393   4.187 -0.5684 -0.4609  0.3138
  182SLPC  H13R20803   0.969   3.304   4.242 -1.6526 -1.1775 -0.1287
  182SLPC  C21420804   0.846   3.487   4.263 -0.1772  0.5845 -0.3643
  182SLPC  H14R20805   0.775   3.440   4.335  2.4182 -1.0013  1.3243
  182SLPC  H14S20806   0.785   3.549   4.195 -0.8652 -0.3644 -0.6290
  182SLPC  C21520807   0.939   3.574   4.347 -0.8194  0.0470  0.7361
  182SLPC  H15R20808   0.894   3.670   4.380  0.3834  0.3037  1.7315
  182SLPC  H15S20809   1.018   3.609   4.277  0.9594  0.8492  3.0051
  182SLPC  C21620810   1.002   3.514   4.476  0.3044 -1.2919 -0.5814
  182SLPC  H16R20811   1.085   3.447   4.447 -1.1232 -2.5039 -1.9973
  182SLPC  H16S20812   0.923   3.460   4.533 -1.3762  1.9154  0.4099
  182SLPC  C21720813   1.049   3.614   4.576  0.6565 -0.5472 -0.5608
  182SLPC  H17R20814   0.963   3.679   4.602  0.5317 -1.2131  0.7483
  182SLPC  H17S20815   1.124   3.677   4.523 -0.0887 -0.5325 -1.6274
  182SLPC  C21820816   1.084   3.547   4.708 -0.0717  0.2597  0.2326
  182SLPC  H18R20817   1.116   3.621   4.785  3.1765  0.3075 -0.9672
  182SLPC  H18S20818   1.179   3.491   4.695  1.2119  2.5320 -0.7823
  182SLPC  H18T20819   1.007   3.478   4.749  1.3873 -0.8817  1.1729
  182SLPC   C3320820   0.606   3.739   3.397 -0.1287 -0.2195  0.0648
  182SLPC   H3X20821   0.711   3.760   3.428 -0.1621 -0.7483  0.5697
  182SLPC   H3Y20822   0.590   3.642   3.345 -2.2815  1.2443 -2.2005
  182SLPC   C3420823   0.528   3.762   3.528 -0.0875  0.1431 -0.3388
  182SLPC   H4X20824   0.547   3.865   3.566  1.4004 -0.2274  0.0026
  182SLPC   H4Y20825   0.564   3.690   3.605 -0.4742 -0.1711 -0.4495
  182SLPC   C3520826   0.378   3.761   3.512  0.3707  0.5855  0.7652
  182SLPC   H5X20827   0.353   3.661   3.471 -0.2431  1.4076 -0.9572
  182SLPC   H5Y20828   0.338   3.829   3.434 -0.5910  1.2215  1.7864
  182SLPC   C3620829   0.304   3.797   3.644  0.4918 -0.3568  0.6472
  182SLPC   H6X20830   0.198   3.777   3.617  0.0142  0.8264  1.5766
  182SLPC   H6Y20831   0.316   3.904   3.673  3.5724 -0.7494  1.1684
  182SLPC   C3720832   0.334   3.699   3.763 -0.0374 -0.2645  0.4240
  182SLPC   H7X20833   0.439   3.718   3.796 -0.1376 -1.5712  1.6064
  182SLPC   H7Y20834   0.323   3.594   3.726  1.5456 -0.8306  1.4286
  182SLPC   C3820835   0.238   3.717   3.881  0.8458  0.0573  0.0258
  182SLPC   H8X20836   0.242   3.625   3.943  0.2201  1.0401  1.6134
  182SLPC   H8Y20837   0.135   3.738   3.848  0.9287  0.9993  0.3273
  182SLPC   C3920838   0.281   3.838   3.978  0.0490 -0.3361 -0.2387
  182SLPC   H9X20839   0.206   3.871   4.053  1.4177  0.3890  0.8347
  182SLPC   H9Y20840   0.314   3.920   3.911 -0.5218 -0.2718 -0.4456
  182SLPC  C31020841   0.407   3.789   4.059  0.2838 -0.0293  0.5691
  182SLPC  H10X20842   0.499   3.796   3.997  0.3078  2.0178  0.7486
  182SLPC  H10Y20843   0.397   3.682   4.087 -2.0860 -0.1464 -0.5155
  182SLPC  C31120844   0.438   3.872   4.184 -0.2138 -0.4044 -0.3593
  182SLPC  H11X20845   0.379   3.826   4.266  0.9627 -1.4308 -0.0715
  182SLPC  H11Y20846   0.405   3.977   4.165 -0.5287 -0.8335 -2.4001
  182SLPC  C31220847   0.586   3.881   4.231  0.2632 -0.3488  0.0651
  182SLPC  H12X20848   0.635   3.953   4.163  2.4534 -0.2292  1.6474
  182SLPC  H12Y20849   0.635   3.783   4.208 -0.9719 -0.2969 -3.4192
  182SLPC  C31320850   0.604   3.915   4.383  0.2008 -0.3346 -0.5371
  182SLPC  H13X20851   0.570   3.831   4.446  0.2850  0.2437  0.2905
  182SLPC  H13Y20852   0.531   3.997   4.405 -0.4606 -0.8977 -0.6111
  182SLPC  C31420853   0.739   3.968   4.423  0.0149  0.0874  0.5345
  182SLPC  H14X20854   0.783   4.042   4.353  2.9979  0.2039  2.3826
  182SLPC  H14Y20855   0.806   3.881   4.433 -1.3773 -0.9651  1.0856
  182SLPC  C31520856   0.745   4.028   4.573  0.0440 -0.0770  0.0396
  182SLPC  H15X20857   0.854   4.033   4.595  0.1423 -0.8587 -0.2257
  182SLPC  H15Y20858   0.693   3.959   4.642 -1.1273  2.2724  1.6563
  182SLPC  C31620859   0.696   4.176   4.583 -0.6360  0.3696  0.4148
  182SLPC  H16X20860   0.589   4.181   4.555 -0.0203  0.2817 -2.2453
  182SLPC  H16Y20861   0.743   4.238   4.503 -0.6727 -2.3902 -1.9031
  182SLPC  C31720862   0.721   4.230   4.732 -0.5157  0.1265 -0.1562
  182SLPC  H17X20863   0.730   4.340   4.715 -1.9047  0.6656  2.0685
  182SLPC  H17Y20864   0.819   4.195   4.771 -1.2033  0.4946  2.0203
  182SLPC  C31820865   0.608   4.225   4.832  0.2183  0.7076  0.1094
  182SLPC  H18X20866   0.574   4.119   4.831 -0.0780  0.8019 -0.1327
  182SLPC  H18Y20867   0.519   4.283   4.796  0.6848  0.5968 -1.2903
  182SLPC  H18Z20868   0.624   4.252   4.938 -1.4366  2.9114 -0.1159
  183SLPC     N20869   2.547   0.291   2.363 -0.7742  0.4899  0.1118
  183SLPC   C1320870   2.415   0.290   2.423  0.4606  0.4583 -0.1768
  183SLPC  H13A20871   2.387   0.374   2.485 -3.1799 -0.1284 -0.8377
  183SLPC  H13B20872   2.338   0.284   2.348  0.2373 -2.4037  0.1689
  183SLPC  H13C20873   2.403   0.206   2.489 -0.0987  1.9109  1.6776
  183SLPC   C1420874   2.564   0.419   2.292 -0.5560  0.3271 -0.2779
  183SLPC  H14A20875   2.662   0.415   2.247 -0.7736 -1.7890 -0.6665
  183SLPC  H14B20876   2.489   0.442   2.217 -2.1743  0.6341  1.3816
  183SLPC  H14C20877   2.572   0.501   2.362 -0.1066  0.0490  0.0004
  183SLPC   C1520878   2.553   0.171   2.267 -0.0921  0.2876 -0.6695
  183SLPC  H15A20879   2.538   0.076   2.316 -1.2253  0.7954  0.0080
  183SLPC  H15B20880   2.487   0.188   2.183 -3.9746 -2.2824  1.5447
  183SLPC  H15C20881   2.653   0.162   2.228 -0.2661  0.3549 -1.1470
  183SLPC   C1220882   2.652   0.259   2.471 -0.7081  0.3847  0.3882
  183SLPC  H12A20883   2.746   0.240   2.421 -2.6244 -0.6305 -3.2263
  183SLPC  H12B20884   2.630   0.168   2.525  1.1971 -1.5310 -1.8314
  183SLPC   C1120885   2.663   0.369   2.581 -0.1717  0.4371  0.2481
  183SLPC  H11A20886   2.751   0.338   2.641 -0.0503  0.6556  0.1857
  183SLPC  H11B20887   2.567   0.370   2.638 -0.7688 -0.9464 -0.6862
  183SLPC     P20888   2.675   0.624   2.636 -0.1161  0.1725 -0.0006
  183SLPC   O1320889   2.806   0.696   2.650 -0.2990  0.0557  0.4719
  183SLPC   O1420890   2.560   0.706   2.596 -0.2721  0.9099 -0.6379
  183SLPC   O1220891   2.691   0.503   2.528  0.3153 -0.3531 -0.4736
  183SLPC   O1120892   2.641   0.549   2.773  0.3565  0.0392 -0.0521
  183SLPC    C120893   2.638   0.634   2.888  0.2250 -0.1456 -0.5902
  183SLPC    HA20894   2.631   0.740   2.856 -0.5239 -0.0644 -0.1910
  183SLPC    HB20895   2.541   0.619   2.941  1.3226  0.6869  1.8180
  183SLPC    C220896   2.750   0.612   2.990  0.1975  0.8117  0.0632
  183SLPC    HS20897   2.845   0.631   2.936  0.4526 -0.9675 -0.1734
  183SLPC   O2120898   2.745   0.476   3.029 -0.7531  0.3978 -0.2981
  183SLPC   C2120899   2.864   0.423   3.069 -0.1389 -0.7212  0.3842
  183SLPC   O2220900   2.966   0.481   3.070 -0.2657 -1.0943  0.2625
  183SLPC   C2220901   2.833   0.292   3.138 -0.1387 -0.7946  0.2025
  183SLPC   H2R20902   2.768   0.227   3.076  0.6233 -1.7030  0.3244
  183SLPC   H2S20903   2.930   0.237   3.148  0.3477  0.0189  0.0423
  183SLPC    C320904   2.713   0.706   3.108  0.5374 -0.2302 -0.2814
  183SLPC    HX20905   2.617   0.663   3.144  0.5964  0.2561  0.4672
  183SLPC    HY20906   2.705   0.812   3.076 -0.7345  0.3548  1.7874
  183SLPC   O3120907   2.801   0.705   3.224  0.6710 -0.0784  0.4129
  183SLPC   C3120908   2.922   0.762   3.216  0.7240 -0.0528 -0.2768
  183SLPC   O3220909   2.965   0.823   3.122 -0.5586 -0.2233 -0.1048
  183SLPC   C3220910   3.002   0.730   3.340  0.6350  0.1933  0.3682
  183SLPC   H2X20911   3.045   0.631   3.315 -3.8665 -1.6611 -0.9833
  183SLPC   H2Y20912   2.924   0.698   3.413 -1.0612  0.7254 -1.1360
  183SLPC   C2320913   2.750   0.320   3.263 -0.2489  0.2186 -0.5816
  183SLPC   H3R20914   2.703   0.227   3.303 -1.3279  0.8094 -0.4222
  183SLPC   H3S20915   2.673   0.398   3.245  0.8446  1.4795  0.0626
  183SLPC   C2420916   2.840   0.362   3.381  0.2142 -0.3855 -0.2866
  183SLPC   H4R20917   2.913   0.441   3.352 -0.2740  1.0439  2.1580
  183SLPC   H4S20918   2.886   0.262   3.397  0.2201 -0.3171  0.1292
  183SLPC   C2520919   2.752   0.409   3.489  0.7522 -0.9033 -1.0176
  183SLPC   H5R20920   2.671   0.333   3.499 -0.6354  0.5785 -0.6171
  183SLPC   H5S20921   2.690   0.492   3.450 -1.5024 -3.1190 -2.4760
  183SLPC   C2620922   2.817   0.447   3.633  0.1467  0.4084  0.3175
  183SLPC   H6R20923   2.874   0.543   3.624  0.3950  0.0553 -2.6283
  183SLPC   H6S20924   2.893   0.370   3.656 -0.4556 -0.4931 -0.6691
  183SLPC   C2720925   2.724   0.456   3.752  0.0286  0.3275  0.0027
  183SLPC   H7R20926   2.665   0.362   3.743 -1.7421  1.3548  0.5086
  183SLPC   H7S20927   2.652   0.539   3.744  0.1480  0.4337  0.0218
  183SLPC   C2820928   2.794   0.461   3.890  0.0415 -0.0729  0.5057
  183SLPC   H8R20929   2.876   0.386   3.884  0.2177  0.2010 -0.6415
  183SLPC   H8S20930   2.715   0.442   3.966 -0.6068  0.1938 -0.0885
  183SLPC   C2920931   2.857   0.592   3.917 -0.9380 -0.1935 -0.4066
  183SLPC   H9R20932   2.836   0.674   3.848  0.9525  2.6407  2.1368
  183SLPC  C21020933   2.931   0.617   4.026  0.3772 -0.1609 -0.4113
  183SLPC  H10R20934   2.979   0.715   4.036  0.8589 -0.1632 -2.3351
  183SLPC  C21120935   2.961   0.512   4.132  0.2217 -0.0694  0.2355
  183SLPC  H11R20936   3.063   0.483   4.100 -0.9123 -2.5634 -1.4166
  183SLPC  H11S20937   2.896   0.422   4.126 -1.5367  1.0644  1.4692
  183SLPC  C21220938   2.982   0.555   4.275  0.5824  0.0862  0.0999
  183SLPC  H12R20939   3.070   0.501   4.313  1.0234  0.5191 -0.2893
  183SLPC  C21320940   2.916   0.643   4.356  0.4916  0.4286 -0.3836
  183SLPC  H13R20941   2.944   0.662   4.461  0.8583  1.1585 -0.6067
  183SLPC  C21420942   2.787   0.710   4.321 -0.3550  0.0552  0.3137
  183SLPC  H14R20943   2.758   0.693   4.215  1.3183  1.8528 -0.5057
  183SLPC  H14S20944   2.800   0.819   4.341  0.9159 -0.4477  2.6846
  183SLPC  C21520945   2.682   0.656   4.426 -1.0481 -1.0574  0.0490
  183SLPC  H15R20946   2.670   0.546   4.411 -0.7910 -0.7506 -2.9114
  183SLPC  H15S20947   2.584   0.696   4.395 -1.2979 -1.3233  0.4792
  183SLPC  C21620948   2.698   0.692   4.577  0.1550  0.3759  0.2004
  183SLPC  H16R20949   2.662   0.796   4.587  2.3755  1.4077 -1.7101
  183SLPC  H16S20950   2.805   0.696   4.609  0.9307  1.1639 -2.2970
  183SLPC  C21720951   2.625   0.600   4.682 -0.4025  0.4868  0.0557
  183SLPC  H17R20952   2.629   0.489   4.676 -2.0468  0.2887  1.8115
  183SLPC  H17S20953   2.516   0.608   4.664 -0.1943 -0.7679 -2.2547
  183SLPC  C21820954   2.658   0.638   4.829  0.0633 -0.3123 -0.7771
  183SLPC  H18R20955   2.768   0.644   4.840 -0.0534  1.3031 -0.2974
  183SLPC  H18S20956   2.601   0.583   4.908  1.0987  0.9160  0.8946
  183SLPC  H18T20957   2.640   0.745   4.852  3.6405 -0.2019  2.6500
  183SLPC   C3320958   3.080   0.850   3.388  0.4874  0.8791  0.0499
  183SLPC   H3X20959   3.011   0.936   3.404  1.0351  0.9677  2.2575
  183SLPC   H3Y20960   3.145   0.878   3.302 -1.8428  2.5094 -1.2945
  183SLPC   C3420961   3.165   0.821   3.512  0.4026  0.2289  0.2237
  183SLPC   H4X20962   3.242   0.898   3.536  0.5745  0.1296 -0.0065
  183SLPC   H4Y20963   3.210   0.721   3.497  0.1300 -0.4717  3.4135
  183SLPC   C3520964   3.079   0.812   3.641 -0.2444  0.0659 -0.4144
  183SLPC   H5X20965   3.132   0.757   3.722  0.1412 -2.4489 -2.2405
  183SLPC   H5Y20966   2.983   0.756   3.636 -0.7067  0.3307  3.0851
  183SLPC   C3620967   3.036   0.943   3.695 -0.3758 -0.3792 -0.4001
  183SLPC   H6X20968   2.940   0.974   3.649  0.1156  2.8557  0.4893
  183SLPC   H6Y20969   3.118   1.009   3.660 -0.8203  0.1677 -0.4204
  183SLPC   C3720970   3.025   0.951   3.847 -0.1154 -0.3543  0.0353
  183SLPC   H7X20971   3.117   0.914   3.897 -0.8650  1.2562  2.8372
  183SLPC   H7Y20972   2.941   0.885   3.877  0.1367 -1.3362 -1.3514
  183SLPC   C3820973   2.997   1.092   3.901 -0.0206 -0.2065  0.3289
  183SLPC   H8X20974   2.919   1.148   3.846 -0.1666  0.1259  0.8696
  183SLPC   H8Y20975   3.085   1.158   3.888 -2.5249  2.9845 -2.0718
  183SLPC   C3920976   2.949   1.096   4.042 -0.1922  0.5115 -0.2018
  183SLPC   H9X20977   2.853   1.041   4.034  0.5717 -0.6905 -1.9561
  183SLPC   H9Y20978   2.917   1.200   4.064 -0.4141  0.3317  0.3230
  183SLPC  C31020979   3.025   1.017   4.148 -0.5000  0.2021  0.4788
  183SLPC  H10X20980   3.132   1.044   4.145  0.2632 -2.4284  1.3095
  183SLPC  H10Y20981   3.011   0.907   4.145 -0.6078  0.1874  1.2605
  183SLPC  C31120982   2.963   1.056   4.279  0.0037 -1.6320 -0.1390
  183SLPC  H11X20983   2.854   1.032   4.277 -0.1154 -1.3941  1.6047
  183SLPC  H11Y20984   2.969   1.166   4.291 -1.6200 -1.3341 -1.7384
  183SLPC  C31220985   3.025   0.997   4.400 -0.2170  0.0869  0.0221
  183SLPC  H12X20986   3.136   0.997   4.390 -0.0597  1.2219  1.4613
  183SLPC  H12Y20987   2.998   0.889   4.401  1.2977 -0.3175  0.3911
  183SLPC  C31320988   2.997   1.055   4.535  0.0296  0.3628  0.2343
  183SLPC  H13X20989   3.028   1.162   4.539  0.2518  0.3334 -0.5526
  183SLPC  H13Y20990   3.052   0.995   4.610 -0.9611  0.2591  0.8917
  183SLPC  C31420991   2.844   1.056   4.578 -0.1710 -0.0201  0.7368
  183SLPC  H14X20992   2.803   0.966   4.528  0.3038  0.1014  0.1198
  183SLPC  H14Y20993   2.805   1.147   4.527  1.1895  0.8738  1.2202
  183SLPC  C31520994   2.840   1.051   4.731 -0.0010  0.2432 -0.0174
  183SLPC  H15X20995   2.929   1.115   4.751 -0.4434  1.4784 -1.8268
  183SLPC  H15Y20996   2.841   0.949   4.777 -1.6960 -0.4611 -1.4533
  183SLPC  C31620997   2.714   1.122   4.791  0.6849  0.5227 -0.0704
  183SLPC  H16X20998   2.616   1.071   4.780  0.3437  0.5852  2.3189
  183SLPC  H16Y20999   2.691   1.222   4.747  1.2878 -0.0487 -1.7744
  183SLPC  C31721000   2.726   1.125   4.953 -0.8930 -0.2071  0.3091
  183SLPC  H17X21001   2.643   1.194   4.979 -0.4038  0.6522 -0.3375
  183SLPC  H17Y21002   2.818   1.174   4.990 -0.4724 -1.2908  0.7563
  183SLPC  C31821003   2.701   0.987   5.019  0.6270  0.0594  0.2945
  183SLPC  H18X21004   2.622   0.932   4.963  1.3806 -0.5551 -0.2030
  183SLPC  H18Y21005   2.680   0.997   5.127  0.7618 -1.8781  0.5414
  183SLPC  H18Z21006   2.790   0.921   5.007  0.0109 -0.9483  1.1143
  184SLPC     N21007   1.853   6.618   2.891  0.1751 -0.6032  0.2276
  184SLPC   C1321008   1.880   6.726   2.990 -0.1948 -0.0782 -0.6045
  184SLPC  H13A21009   1.951   6.689   3.062 -1.6103  1.0779  1.4677
  184SLPC  H13B21010   1.922   6.808   2.934  1.7332 -0.5932  0.0264
  184SLPC  H13C21011   1.793   6.758   3.045  0.3678  1.8527 -0.7610
  184SLPC   C1421012   1.964   6.623   2.793  0.2701  0.6347  0.0957
  184SLPC  H14A21013   1.976   6.719   2.746  2.3821 -0.1377 -1.1194
  184SLPC  H14B21014   2.062   6.605   2.837 -0.5380 -1.2974  1.2251
  184SLPC  H14C21015   1.947   6.547   2.718  1.6471  0.8856 -0.5023
  184SLPC   C1521016   1.730   6.639   2.813 -0.6137 -0.4581  0.1091
  184SLPC  H15A21017   1.716   6.571   2.731 -0.6240  0.4656 -0.6785
  184SLPC  H15B21018   1.641   6.631   2.874 -0.1338 -0.1682  0.8715
  184SLPC  H15C21019   1.727   6.743   2.783  0.0041 -0.1553  1.0420
  184SLPC   C1221020   1.841   6.484   2.968  0.6370 -0.6090  0.2862
  184SLPC  H12A21021   1.776   6.496   3.054 -0.2738 -1.9586 -0.1853
  184SLPC  H12B21022   1.933   6.467   3.022  0.7390 -0.8956  0.0257
  184SLPC   C1121023   1.795   6.350   2.901 -0.1957 -0.1781 -0.4300
  184SLPC  H11A21024   1.687   6.359   2.876 -0.5619  1.7663  1.5491
  184SLPC  H11B21025   1.811   6.278   2.985 -1.4534 -0.9081 -0.7908
  184SLPC     P21026   2.020   6.259   2.787  0.0409 -0.4997  0.0547
  184SLPC   O1321027   2.013   6.111   2.792  0.0236 -0.7243 -0.1392
  184SLPC   O1421028   2.106   6.317   2.688  0.0582  0.4926  0.6993
  184SLPC   O1221029   1.873   6.323   2.785  0.0530 -0.4973  0.4676
  184SLPC   O1121030   2.067   6.316   2.929  0.2644 -0.7641  0.2795
  184SLPC    C121031   2.184   6.256   2.977 -0.1244 -0.0101  0.2951
  184SLPC    HA21032   2.178   6.147   2.999  2.4023 -0.1917  0.3940
  184SLPC    HB21033   2.267   6.275   2.906 -1.2462  1.2249 -0.7427
  184SLPC    C221034   2.222   6.319   3.117  0.2030 -0.2987 -0.0245
  184SLPC    HS21035   2.300   6.257   3.166 -0.2793 -1.8999 -1.1934
  184SLPC   O2121036   2.107   6.321   3.199 -0.7711 -0.3351  0.1065
  184SLPC   C2121037   2.074   6.211   3.242 -0.5647  0.0491 -0.0904
  184SLPC   O2221038   2.136   6.104   3.240 -0.3390 -0.4291 -0.0238
  184SLPC   C2221039   1.937   6.231   3.313 -0.2287 -0.5334  0.2711
  184SLPC   H2R21040   1.916   6.336   3.340  1.3873 -0.1462  0.1517
  184SLPC   H2S21041   1.878   6.212   3.221  0.4419  0.4556 -0.3904
  184SLPC    C321042   2.263   6.464   3.094 -0.3720  0.1618  0.2108
  184SLPC    HX21043   2.169   6.506   3.053  0.4084  1.9477  0.1694
  184SLPC    HY21044   2.351   6.479   3.027 -0.1486  1.7453  0.7981
  184SLPC   O3121045   2.300   6.532   3.220  0.0793  0.5379  0.1218
  184SLPC   C3121046   2.221   6.631   3.259  0.6476 -0.0552  0.4189
  184SLPC   O3221047   2.117   6.679   3.210 -0.8169 -0.0585  0.3355
  184SLPC   C3221048   2.291   6.675   3.394  0.0532  1.0122 -0.4236
  184SLPC   H2X21049   2.341   6.772   3.370 -1.1111  1.2292 -2.1642
  184SLPC   H2Y21050   2.362   6.600   3.434  0.2437  1.0053 -0.7656
  184SLPC   C2321051   1.886   6.130   3.414  0.3197 -0.3036  0.5874
  184SLPC   H3R21052   1.894   6.026   3.373 -2.1825 -0.2594 -0.1346
  184SLPC   H3S21053   1.779   6.148   3.438  0.4939  2.8304 -0.5490
  184SLPC   C2421054   1.971   6.145   3.543 -0.8456  0.5289  0.6838
  184SLPC   H4R21055   2.010   6.249   3.545  2.9127 -0.7562  1.0012
  184SLPC   H4S21056   2.063   6.085   3.528 -0.5911  1.2947 -0.9950
  184SLPC   C2521057   1.904   6.109   3.674 -0.0392  0.5319  0.7350
  184SLPC   H5R21058   1.884   5.999   3.669 -1.0271  0.7728 -1.5684
  184SLPC   H5S21059   1.805   6.160   3.676 -1.8769 -2.7238  0.1926
  184SLPC   C2621060   1.989   6.127   3.801 -0.4328 -0.5522 -0.5262
  184SLPC   H6R21061   1.995   6.238   3.810 -0.1112 -0.7268  2.3484
  184SLPC   H6S21062   2.089   6.080   3.801  0.0835  0.5045 -0.6009
  184SLPC   C2721063   1.915   6.074   3.919 -0.1204  0.6884  0.2746
  184SLPC   H7R21064   1.901   5.965   3.904 -0.9198  1.1878 -3.5589
  184SLPC   H7S21065   1.809   6.107   3.917 -0.6367 -0.9072 -1.6258
  184SLPC   C2821066   1.973   6.104   4.058  0.0555  0.1471 -0.3376
  184SLPC   H8R21067   2.079   6.071   4.062  0.0964  0.3819  1.2916
  184SLPC   H8S21068   1.910   6.049   4.131  0.9112  1.4802  1.4993
  184SLPC   C2921069   1.968   6.252   4.102  0.1458  0.5706  0.3760
  184SLPC   H9R21070   1.964   6.326   4.021 -1.7664  0.3792  0.2708
  184SLPC  C21021071   1.961   6.298   4.223  0.5437 -0.2408 -0.3860
  184SLPC  H10R21072   1.965   6.406   4.241  1.1790 -0.3821  0.4124
  184SLPC  C21121073   1.953   6.208   4.343 -0.1409  0.0762  0.0093
  184SLPC  H11R21074   1.877   6.128   4.331 -0.0419 -0.4944  2.5606
  184SLPC  H11S21075   1.916   6.268   4.429  1.7728  0.3838  0.6686
  184SLPC  C21221076   2.077   6.130   4.380 -0.1616 -0.3873 -0.2953
  184SLPC  H12R21077   2.144   6.108   4.296 -0.6625  0.5827 -0.9706
  184SLPC  C21321078   2.111   6.100   4.506 -0.2977 -0.2531  0.6222
  184SLPC  H13R21079   2.202   6.041   4.520  1.1681  1.6676 -0.4204
  184SLPC  C21421080   2.045   6.138   4.632 -0.1281  0.1787 -0.0510
  184SLPC  H14R21081   2.059   6.045   4.691  2.2203 -1.0447 -2.3506
  184SLPC  H14S21082   1.938   6.168   4.626  0.3208  1.7066 -0.9877
  184SLPC  C21521083   2.110   6.247   4.717  0.0479  0.2257 -0.4995
  184SLPC  H15R21084   2.087   6.340   4.660 -1.6986 -1.1230 -2.1546
  184SLPC  H15S21085   2.218   6.231   4.733 -0.5472 -1.7755  1.9590
  184SLPC  C21621086   2.046   6.270   4.861  0.0310  0.0127 -0.4788
  184SLPC  H16R21087   1.940   6.298   4.851 -0.2492  0.4552  2.6983
  184SLPC  H16S21088   2.097   6.349   4.921 -1.9773  0.0338  1.3487
  184SLPC  C21721089   2.050   6.142   4.944 -0.0909  0.0214  0.2826
  184SLPC  H17R21090   1.995   6.071   4.878  0.5698  0.4728 -0.7704
  184SLPC  H17S21091   1.993   6.143   5.040  0.8035  1.0125  0.8239
  184SLPC  C21821092   2.192   6.102   4.981  0.2279 -0.0173  0.4470
  184SLPC  H18R21093   2.178   6.012   5.044  1.9044  0.1423  1.0903
  184SLPC  H18S21094   2.244   6.177   5.044 -0.8186  1.6475 -0.6063
  184SLPC  H18T21095   2.250   6.084   4.887  0.0266 -1.1697  0.5230
  184SLPC   C3321096   2.186   6.705   3.497  0.1649  0.2935 -0.2722
  184SLPC   H3X21097   2.106   6.779   3.475  0.3127  0.7589  0.7104
  184SLPC   H3Y21098   2.254   6.756   3.569 -0.2772  0.9063 -0.2873
  184SLPC   C3421099   2.143   6.577   3.569 -0.2197  0.0590  0.5428
  184SLPC   H4X21100   2.226   6.534   3.629 -0.6255  0.7912  1.6615
  184SLPC   H4Y21101   2.116   6.502   3.492 -1.4306  0.9217  0.0941
  184SLPC   C3521102   2.028   6.606   3.662  0.3930 -0.9268  0.0557
  184SLPC   H5X21103   1.977   6.510   3.685 -1.7208 -0.2566 -1.5715
  184SLPC   H5Y21104   1.945   6.656   3.609  0.0648  0.0227  1.4070
  184SLPC   C3621105   2.067   6.677   3.792 -0.2378 -0.1109  0.5967
  184SLPC   H6X21106   1.975   6.712   3.845 -0.0757  1.7406 -0.2611
  184SLPC   H6Y21107   2.124   6.768   3.762 -0.2541 -0.6512 -1.1871
  184SLPC   C3721108   2.164   6.593   3.879 -0.4535 -0.1888  0.8272
  184SLPC   H7X21109   2.265   6.606   3.835 -0.8922 -0.3978 -0.2723
  184SLPC   H7Y21110   2.141   6.484   3.872  2.0702 -0.7121 -0.5159
  184SLPC   C3821111   2.156   6.631   4.026 -0.6411  0.3708  0.6763
  184SLPC   H8X21112   2.048   6.623   4.053 -1.0052 -0.7636 -0.9656
  184SLPC   H8Y21113   2.186   6.738   4.034  0.1581  0.3289 -1.3484
  184SLPC   C3921114   2.221   6.540   4.123 -0.3157  0.4517 -0.3945
  184SLPC   H9X21115   2.326   6.526   4.089  0.5016  1.6582  1.4458
  184SLPC   H9Y21116   2.177   6.439   4.108 -1.5214  0.3219  3.2199
  184SLPC  C31021117   2.227   6.601   4.264 -0.0630 -0.6995  0.1436
  184SLPC  H10X21118   2.122   6.592   4.298 -0.0857 -1.8951 -0.1930
  184SLPC  H10Y21119   2.261   6.707   4.264  0.9637 -1.0109  1.1047
  184SLPC  C31121120   2.314   6.533   4.369 -0.1942  0.1478 -0.0866
  184SLPC  H11X21121   2.419   6.549   4.337 -0.9294  3.6558 -1.1894
  184SLPC  H11Y21122   2.290   6.425   4.371 -2.7800  0.6804  0.7318
  184SLPC  C31221123   2.301   6.586   4.514 -0.4564 -0.0611 -0.0331
  184SLPC  H12X21124   2.204   6.568   4.564 -0.5330 -1.1442 -0.5527
  184SLPC  H12Y21125   2.338   6.691   4.521  1.1298 -0.6507  0.8497
  184SLPC  C31321126   2.405   6.512   4.599  0.0461 -0.1277 -0.3901
  184SLPC  H13X21127   2.510   6.531   4.569  0.0678  1.2888  0.4997
  184SLPC  H13Y21128   2.386   6.403   4.586 -1.5058  0.1769 -1.0280
  184SLPC  C31421129   2.396   6.549   4.744 -0.2148  0.2178  0.6319
  184SLPC  H14X21130   2.294   6.515   4.771 -0.2865  0.4697  0.6849
  184SLPC  H14Y21131   2.388   6.660   4.745 -1.9142  0.1500 -0.4342
  184SLPC  C31521132   2.511   6.499   4.837  0.1931 -0.3102 -0.6093
  184SLPC  H15X21133   2.614   6.524   4.803 -0.1599  0.1576 -1.3458
  184SLPC  H15Y21134   2.508   6.389   4.842  0.9360 -0.2835  1.4359
  184SLPC  C31621135   2.482   6.563   4.976 -0.4539  0.3669  0.0143
  184SLPC  H16X21136   2.379   6.526   4.996 -0.3635  0.1994  0.1661
  184SLPC  H16Y21137   2.492   6.674   4.970  2.1374  0.1617 -0.7522
  184SLPC  C31721138   2.558   6.500   5.093  0.4821 -0.0824 -1.0395
  184SLPC  H17X21139   2.664   6.535   5.089  0.8939 -0.6046  2.5032
  184SLPC  H17Y21140   2.552   6.390   5.092 -1.5712 -0.0250  0.1194
  184SLPC  C31821141   2.511   6.561   5.225  0.4374  0.5104 -0.5177
  184SLPC  H18X21142   2.562   6.503   5.305  0.7227 -0.3402 -1.3008
  184SLPC  H18Y21143   2.402   6.574   5.241  0.5243  0.8237 -0.1695
  184SLPC  H18Z21144   2.549   6.665   5.232  0.0030  0.6043  0.7740
  185POPC     N21145   4.051   1.242   7.824 -0.4501  0.1926  0.2830
  185POPC   C1221146   4.036   1.101   7.796  0.2961  0.2112 -0.2422
  185POPC  H12A21147   3.942   1.068   7.838  0.9882 -0.2451  1.0180
  185POPC  H12B21148   4.108   1.059   7.865 -0.6910  0.6856  1.1252
  185POPC   C1321149   4.190   1.297   7.816 -0.0494  0.6514  0.6194
  185POPC  H13A21150   4.237   1.293   7.718 -0.3189  1.6071  0.4399
  185POPC  H13B21151   4.194   1.404   7.824 -0.7650  0.8838 -1.4898
  185POPC  H13C21152   4.256   1.242   7.882  0.8554  1.3158  0.2873
  185POPC   C1421153   3.962   1.324   7.734 -0.2793 -0.1536  0.6002
  185POPC  H14A21154   3.861   1.286   7.731 -0.3441  0.0584 -0.3316
  185POPC  H14B21155   3.960   1.427   7.765  1.0086  0.2509 -0.5689
  185POPC  H14C21156   3.993   1.312   7.631 -3.7347 -0.8499 -0.5087
  185POPC   C1521157   4.003   1.261   7.964 -0.6458 -0.6070  0.0622
  185POPC  H15A21158   4.066   1.208   8.034  3.0490  2.3915 -0.7356
  185POPC  H15B21159   3.896   1.246   7.977 -0.4667 -1.5008  0.6331
  185POPC  H15C21160   4.022   1.363   7.993  0.6620 -1.1047  1.0520
  185POPC   C1121161   4.045   1.038   7.655 -0.4306  0.3408 -0.0793
  185POPC  H11A21162   3.977   1.099   7.591 -0.1773  0.6705 -0.0356
  185POPC  H11B21163   4.005   0.934   7.658 -0.9432  0.4862 -1.2609
  185POPC     P21164   4.283   0.947   7.661  0.3500 -0.2967  0.1754
  185POPC   O1321165   4.243   0.807   7.634 -0.3989 -0.2541  0.1971
  185POPC   O1421166   4.302   0.984   7.802  0.1260  0.2235  0.5143
  185POPC   O1221167   4.181   1.041   7.601 -0.0700 -0.7683 -0.0200
  185POPC   O1121168   4.416   0.968   7.582 -0.3135 -0.2025 -0.1406
  185POPC    C121169   4.436   1.078   7.490  0.1555 -0.0779 -0.7284
  185POPC    HA21170   4.539   1.119   7.501  0.5577 -0.9764 -1.1166
  185POPC    HB21171   4.385   1.172   7.523  1.5439  0.5471 -0.3037
  185POPC    C221172   4.399   1.050   7.342 -0.6547  0.2554  0.2105
  185POPC    HS21173   4.296   1.011   7.328 -0.6942 -0.0874  1.4024
  185POPC   O2121174   4.495   0.953   7.285  0.6844  0.4805  0.3829
  185POPC   C2121175   4.454   0.828   7.284 -0.0643 -0.4143  0.1908
  185POPC   O2221176   4.343   0.784   7.311 -0.1637 -0.5749  0.1824
  185POPC   C2221177   4.570   0.740   7.240  0.2084  0.2937 -0.0262
  185POPC   H2R21178   4.540   0.633   7.241 -2.8584  1.0697  0.7788
  185POPC   H2S21179   4.654   0.773   7.305 -1.3576  2.7280  0.9169
  185POPC    C321180   4.398   1.184   7.262 -0.2365 -0.1444 -0.0164
  185POPC    HX21181   4.503   1.220   7.267 -0.4839  0.9229 -1.5897
  185POPC    HY21182   4.329   1.253   7.316  0.9058  0.3959  0.8031
  185POPC   O3121183   4.353   1.165   7.128  0.2268 -0.5063  0.6742
  185POPC   C3121184   4.441   1.148   7.035  0.7973  0.1953  0.0089
  185POPC   O3221185   4.559   1.175   7.041  0.0411  0.1074 -0.0967
  185POPC   C3221186   4.371   1.098   6.902 -0.3572 -0.5310 -0.6617
  185POPC   H2X21187   4.280   1.158   6.882  1.2628  1.8406 -1.3999
  185POPC   H2Y21188   4.359   0.989   6.920  2.1218 -0.6205  1.0145
  185POPC   C2321189   4.602   0.770   7.091  0.2059  0.1947  0.0852
  185POPC   H3R21190   4.713   0.756   7.096  0.2891  0.9613  0.6250
  185POPC   H3S21191   4.581   0.876   7.064  2.0539  0.9972  1.5500
  185POPC   C2421192   4.537   0.673   6.995  0.2393 -0.7816  0.6190
  185POPC   H4R21193   4.428   0.686   7.013  0.0356  0.3757 -1.1867
  185POPC   H4S21194   4.552   0.564   7.007 -2.9199 -1.4225 -0.5117
  185POPC   C2521195   4.551   0.710   6.846 -0.5703 -0.0076  0.2557
  185POPC   H5R21196   4.658   0.692   6.822 -0.1076 -2.0811  3.2581
  185POPC   H5S21197   4.521   0.815   6.825  1.8613  0.5358 -0.9228
  185POPC   C2621198   4.486   0.613   6.746  0.8350 -0.8467  0.3881
  185POPC   H6R21199   4.381   0.641   6.722  1.9265  2.2824 -1.4911
  185POPC   H6S21200   4.494   0.509   6.784  0.2019 -0.5225  1.4440
  185POPC   C2721201   4.550   0.620   6.608 -0.0054 -0.2505  0.3377
  185POPC   H7R21202   4.497   0.548   6.542  0.6791  0.8102 -1.4559
  185POPC   H7S21203   4.655   0.586   6.597  0.0039  0.0474 -0.6366
  185POPC   C2821204   4.534   0.752   6.536  0.1909 -0.1062 -0.2510
  185POPC   H8R21205   4.568   0.843   6.589 -0.6367  1.0326 -1.6085
  185POPC   H8S21206   4.426   0.776   6.526  0.1863 -0.3880 -1.0255
  185POPC   C2921207   4.601   0.751   6.400 -0.2440  0.7854 -0.2020
  185POPC   H9121208   4.707   0.779   6.407  0.3406 -1.2593 -0.2757
  185POPC  C21021209   4.551   0.713   6.279 -0.1163 -0.0695  0.0055
  185POPC  H10121210   4.621   0.717   6.194  0.2460 -1.3172  0.2315
  185POPC  C21121211   4.406   0.676   6.254  0.4933 -0.0324  0.3630
  185POPC  H11R21212   4.378   0.731   6.162  1.4505 -1.9406 -1.1242
  185POPC  H11S21213   4.339   0.717   6.334  0.6750  3.1735 -0.9972
  185POPC  C21221214   4.380   0.517   6.247 -0.2858 -0.8719  0.2099
  185POPC  H12R21215   4.271   0.510   6.228 -0.4586  1.3750  0.1207
  185POPC  H12S21216   4.407   0.496   6.353 -1.4435  1.8553  1.1479
  185POPC  C21321217   4.455   0.448   6.134 -0.0065 -0.2390  0.0047
  185POPC  H13R21218   4.419   0.344   6.136 -1.2860  0.1833 -0.2292
  185POPC  H13S21219   4.565   0.440   6.147  0.3439  1.6667 -1.3383
  185POPC  C21421220   4.438   0.511   5.999  0.1151  0.9544  0.2060
  185POPC  H14R21221   4.449   0.621   5.998  0.6172  0.9116  0.8035
  185POPC  H14S21222   4.332   0.493   5.968  0.5059 -4.2250  1.0064
  185POPC  C21521223   4.536   0.456   5.896  0.4524  0.2253  0.8272
  185POPC  H15R21224   4.500   0.357   5.861  1.5424 -0.3255  1.2213
  185POPC  H15S21225   4.639   0.442   5.935  1.8043  2.6401 -1.5506
  185POPC  C21621226   4.535   0.539   5.770 -0.2635  0.0587 -0.2230
  185POPC  H16R21227   4.589   0.634   5.785 -1.5503  1.1572 -2.0160
  185POPC  H16S21228   4.434   0.572   5.738  0.3879 -0.0189 -2.5678
  185POPC  C21721229   4.600   0.471   5.641  0.6521 -0.1157 -0.6583
  185POPC  H17R21230   4.567   0.365   5.635 -1.6893  0.3396  1.8400
  185POPC  H17S21231   4.704   0.468   5.679  0.4285 -3.4231 -0.0130
  185POPC  C21821232   4.582   0.550   5.513  0.2767  0.4098 -0.0123
  185POPC  H18R21233   4.644   0.517   5.428  1.4124 -3.6301  2.1184
  185POPC  H18S21234   4.604   0.656   5.537 -0.2881  0.5041  0.1214
  185POPC  H18T21235   4.476   0.559   5.478  0.3156 -1.0720 -0.5672
  185POPC   C3321236   4.471   1.120   6.783  0.3761  0.2931  0.4569
  185POPC   H3X21237   4.569   1.069   6.793 -0.7510 -2.0325  0.4991
  185POPC   H3Y21238   4.502   1.226   6.787 -0.5838  0.5820  0.3749
  185POPC   C3421239   4.398   1.095   6.651 -0.5628  0.3557 -0.4467
  185POPC   H4X21240   4.311   1.164   6.649  1.2634  2.8004 -0.9316
  185POPC   H4Y21241   4.368   0.988   6.649 -2.5143  0.8093  1.0669
  185POPC   C3521242   4.489   1.121   6.537 -0.1856  0.6070 -0.2981
  185POPC   H5X21243   4.580   1.059   6.555  0.4571  1.1924 -1.4139
  185POPC   H5Y21244   4.518   1.228   6.544  0.8553  0.2608  0.9817
  185POPC   C3621245   4.432   1.081   6.402 -0.3095  0.1385  0.4716
  185POPC   H6X21246   4.357   1.159   6.377  0.2550  0.7891  0.7728
  185POPC   H6Y21247   4.396   0.976   6.400 -1.8017  0.5924  1.6151
  185POPC   C3721248   4.535   1.096   6.287  0.4786  0.3431 -0.0427
  185POPC   H7X21249   4.633   1.046   6.303  0.6438  0.2504 -1.2675
  185POPC   H7Y21250   4.560   1.204   6.282  1.6865  0.0472 -1.0780
  185POPC   C3821251   4.477   1.071   6.151 -0.6031  0.2072 -0.0910
  185POPC   H8X21252   4.389   1.136   6.130  0.3837  0.7174 -3.2032
  185POPC   H8Y21253   4.438   0.967   6.152 -1.4036  0.4656 -1.6056
  185POPC   C3921254   4.584   1.083   6.042  0.5285 -0.1015  0.3383
  185POPC   H9X21255   4.665   1.013   6.071  0.7226 -0.4852 -1.0192
  185POPC   H9Y21256   4.619   1.187   6.027 -0.9830  0.6661  1.8792
  185POPC  C31021257   4.529   1.034   5.911  0.9107 -0.7857  0.1964
  185POPC  H10X21258   4.450   1.107   5.886 -2.5940 -3.2236  3.0330
  185POPC  H10Y21259   4.485   0.932   5.921 -0.2766 -0.2948  0.0221
  185POPC  C31121260   4.640   1.037   5.799 -0.4325  0.5295  0.0821
  185POPC  H11X21261   4.735   0.985   5.824 -0.9399 -0.7338 -0.5095
  185POPC  H11Y21262   4.668   1.143   5.779 -2.3678  0.9726 -0.4651
  185POPC  C31221263   4.579   0.980   5.668 -0.5186 -0.2671  0.0459
  185POPC  H12X21264   4.476   1.021   5.659 -0.1222  1.2917  1.8467
  185POPC  H12Y21265   4.569   0.869   5.677 -1.3912 -0.2896 -0.9227
  185POPC  C31321266   4.658   1.009   5.535 -0.0833 -1.4709 -0.2968
  185POPC  H13X21267   4.756   0.957   5.536  0.0734 -1.1748  1.0600
  185POPC  H13Y21268   4.673   1.119   5.530  0.8200 -1.6252 -1.5019
  185POPC  C31421269   4.580   0.963   5.412  0.9104 -0.1865  0.4225
  185POPC  H14X21270   4.473   0.977   5.440  1.3550  0.5202  1.8413
  185POPC  H14Y21271   4.591   0.853   5.402 -1.9252 -0.6178  1.1984
  185POPC  C31521272   4.622   1.039   5.283 -0.2420  1.0738 -0.1656
  185POPC  H15X21273   4.729   1.012   5.270 -0.7685 -0.8357 -0.8612
  185POPC  H15Y21274   4.609   1.148   5.301  0.7864  1.3199 -0.8207
  185POPC  C31621275   4.537   0.993   5.162 -0.1314 -0.1871 -0.5852
  185POPC  H16X21276   4.552   1.061   5.076  1.6330 -0.7536 -0.7689
  185POPC  H16Y21277   4.430   1.000   5.191  0.1111  0.5159  0.1736
  185POPC  H16Z21278   4.563   0.886   5.149  0.8059 -0.3413  1.9315
  186POPC     N21279   0.421   5.673   7.849 -0.0279  0.0898 -0.0427
  186POPC   C1221280   0.476   5.682   7.703 -0.2581  0.1820  0.1742
  186POPC  H12A21281   0.405   5.625   7.644  0.9141 -1.3262  0.1643
  186POPC  H12B21282   0.575   5.641   7.715  0.4977  2.3223  1.9811
  186POPC   C1321283   0.287   5.741   7.854 -0.4474 -0.9236  0.1335
  186POPC  H13A21284   0.298   5.843   7.821  2.9872 -0.7973  1.2872
  186POPC  H13B21285   0.216   5.694   7.788  0.7123  0.5087 -2.2638
  186POPC  H13C21286   0.254   5.762   7.955 -3.1520 -1.3931 -0.5735
  186POPC   C1421287   0.395   5.529   7.891  0.0665 -0.0320  0.1685
  186POPC  H14A21288   0.486   5.471   7.894 -0.5346 -1.0757 -1.0109
  186POPC  H14B21289   0.344   5.532   7.986 -1.2361  0.0691 -0.5212
  186POPC  H14C21290   0.325   5.475   7.829 -0.1831  0.4621  0.0231
  186POPC   C1521291   0.509   5.740   7.947  0.4619  0.3959  0.4437
  186POPC  H15A21292   0.495   5.847   7.950  2.1339  0.6830 -0.8194
  186POPC  H15B21293   0.615   5.728   7.936  0.2367 -2.2759  0.4068
  186POPC  H15C21294   0.484   5.708   8.047  1.7196  2.1996  1.3890
  186POPC   C1121295   0.500   5.824   7.644  1.2455 -0.6292  0.0168
  186POPC  H11A21296   0.404   5.877   7.662  1.6127 -0.2797  1.0299
  186POPC  H11B21297   0.510   5.827   7.534 -2.2028 -1.4368 -0.4257
  186POPC     P21298   0.761   5.835   7.658  0.1568  0.5543  0.0804
  186POPC   O1321299   0.759   5.686   7.673 -0.0096 -0.3926  0.4488
  186POPC   O1421300   0.865   5.906   7.728 -0.7768 -0.1329 -0.2432
  186POPC   O1221301   0.615   5.890   7.699  0.3070 -0.3352  0.3157
  186POPC   O1121302   0.767   5.865   7.500  0.7979 -0.0983 -0.4284
  186POPC    C121303   0.739   5.998   7.457  0.1693 -0.2291 -0.3281
  186POPC    HA21304   0.831   6.060   7.467 -1.2383  1.5062  3.2451
  186POPC    HB21305   0.660   6.043   7.520  0.0560 -0.9186  0.0360
  186POPC    C221306   0.685   6.008   7.312 -0.2355  0.1139 -0.0032
  186POPC    HS21307   0.696   6.114   7.280  0.4267 -0.1021 -0.5227
  186POPC   O2121308   0.553   5.956   7.309 -0.0501 -0.5513 -0.1210
  186POPC   C2121309   0.462   6.013   7.233 -0.6724 -0.3534 -0.4995
  186POPC   O2221310   0.481   6.116   7.172 -0.2487 -0.4566  0.1693
  186POPC   C2221311   0.337   5.933   7.245  0.2368  0.6114 -0.4287
  186POPC   H2R21312   0.278   5.956   7.154 -0.3416  0.2003 -0.1643
  186POPC   H2S21313   0.287   5.967   7.338  0.8299  0.1887  0.0556
  186POPC    C321314   0.768   5.920   7.214  0.2442  0.6799  0.9311
  186POPC    HX21315   0.719   5.822   7.229  0.4919  0.4265  0.1321
  186POPC    HY21316   0.871   5.905   7.252  0.4418  0.7253  0.4308
  186POPC   O3121317   0.746   5.944   7.068 -0.8994 -0.1429  0.0496
  186POPC   C3121318   0.773   6.074   7.034 -0.1540  0.0063 -0.2799
  186POPC   O3221319   0.830   6.158   7.106 -0.0526  0.5414  0.2833
  186POPC   C3221320   0.716   6.099   6.899  0.5706 -0.2069  0.7328
  186POPC   H2X21321   0.606   6.088   6.909  0.0072 -2.2113 -4.4459
  186POPC   H2Y21322   0.760   6.025   6.829  0.5837 -0.0525  0.5761
  186POPC   C2321323   0.354   5.778   7.249 -0.2400 -0.5885  0.5430
  186POPC   H3R21324   0.269   5.741   7.309 -1.3920 -0.3271 -0.8670
  186POPC   H3S21325   0.442   5.743   7.308 -0.9663  0.9991  2.6629
  186POPC   C2421326   0.353   5.713   7.106  0.2473  0.8891 -0.1457
  186POPC   H4R21327   0.256   5.744   7.061  0.6711  1.9715 -0.3415
  186POPC   H4S21328   0.348   5.602   7.114 -1.7843  0.8802 -0.9974
  186POPC   C2521329   0.470   5.755   7.026 -0.5439 -0.4800  0.2357
  186POPC   H5R21330   0.555   5.734   7.094  0.3991 -1.3291 -1.1584
  186POPC   H5S21331   0.457   5.865   7.016 -3.0755 -0.7460 -0.2187
  186POPC   C2621332   0.497   5.694   6.886  0.2240 -0.1186  0.2901
  186POPC   H6R21333   0.493   5.583   6.890 -0.2101 -0.1908 -1.3714
  186POPC   H6S21334   0.596   5.717   6.841  1.0711 -0.3294  1.9589
  186POPC   C2721335   0.382   5.739   6.786 -0.0835  0.0552  0.4261
  186POPC   H7R21336   0.282   5.729   6.833  0.5098  0.2184  1.7866
  186POPC   H7S21337   0.375   5.661   6.707  0.9241  1.6946 -1.3627
  186POPC   C2821338   0.408   5.872   6.714  0.0139  0.0264 -0.3213
  186POPC   H8R21339   0.411   5.967   6.772 -0.8144  1.0433 -1.8544
  186POPC   H8S21340   0.316   5.902   6.660  1.1412  2.4675 -1.0428
  186POPC   C2921341   0.530   5.860   6.619 -0.7726  0.4559  0.9340
  186POPC   H9121342   0.630   5.860   6.666 -0.1454 -0.2438 -0.3578
  186POPC  C21021343   0.526   5.882   6.488  0.2137  0.3641 -0.2638
  186POPC  H10121344   0.624   5.879   6.437  0.7072 -1.2482  0.7127
  186POPC  C21121345   0.414   5.917   6.397  0.0147  0.4415  0.3439
  186POPC  H11R21346   0.350   5.996   6.443 -0.8269  0.6555 -1.1583
  186POPC  H11S21347   0.343   5.832   6.403  0.9998 -0.4845 -0.7034
  186POPC  C21221348   0.456   5.943   6.256  0.7231 -0.3080 -0.1365
  186POPC  H12R21349   0.512   5.854   6.221  0.1092 -0.9240  0.4097
  186POPC  H12S21350   0.521   6.033   6.259 -1.8350  1.6389  0.3683
  186POPC  C21321351   0.329   5.944   6.167  0.2696  0.0845  0.6787
  186POPC  H13R21352   0.259   6.029   6.177  1.2626  0.7178  2.9714
  186POPC  H13S21353   0.279   5.848   6.192  0.1349  0.4153  1.7468
  186POPC  C21421354   0.359   5.946   6.015  0.4105  0.1225 -0.1599
  186POPC  H14R21355   0.432   5.875   5.971 -1.1177 -2.7685  1.6368
  186POPC  H14S21356   0.401   6.046   5.989 -3.1013  2.0622  1.0158
  186POPC  C21521357   0.217   5.928   5.945  0.4074 -0.4048  0.0453
  186POPC  H15R21358   0.161   6.024   5.947  1.5376  0.2675  0.3823
  186POPC  H15S21359   0.163   5.848   6.000  1.4437  0.3460  2.2831
  186POPC  C21621360   0.222   5.892   5.798  0.0322 -0.2739  0.4284
  186POPC  H16R21361   0.120   5.874   5.759  0.6448  1.0639 -1.9714
  186POPC  H16S21362   0.281   5.801   5.773 -0.3509 -0.1437 -1.0485
  186POPC  C21721363   0.277   6.013   5.714 -0.2493 -0.3515 -0.2480
  186POPC  H17R21364   0.319   5.986   5.614  2.7705 -0.5159  0.9615
  186POPC  H17S21365   0.360   6.059   5.771 -0.8827  1.0033 -0.3782
  186POPC  C21821366   0.170   6.122   5.684 -0.6137  0.0960 -0.4574
  186POPC  H18R21367   0.071   6.083   5.654 -1.4966  1.7062  0.2184
  186POPC  H18S21368   0.212   6.204   5.622  0.2755  1.7902  2.1890
  186POPC  H18T21369   0.159   6.172   5.783  0.4640 -0.5212 -0.0068
  186POPC   C3321370   0.756   6.234   6.836  0.2245  0.6092 -0.7387
  186POPC   H3X21371   0.862   6.249   6.867 -0.4656  0.1090  2.1427
  186POPC   H3Y21372   0.711   6.317   6.895  0.3641  0.3746 -0.3027
  186POPC   C3421373   0.714   6.258   6.697 -0.1783 -0.1042  0.1600
  186POPC   H4X21374   0.695   6.364   6.671 -1.0662  0.0674  1.4275
  186POPC   H4Y21375   0.613   6.215   6.683 -0.1183 -0.2215  0.0873
  186POPC   C3521376   0.813   6.189   6.591  1.2071 -0.7353 -0.4566
  186POPC   H5X21377   0.826   6.080   6.608  0.1419 -0.6146  1.5287
  186POPC   H5Y21378   0.910   6.244   6.597  0.9864 -0.2861 -0.9595
  186POPC   C3621379   0.770   6.218   6.446 -0.0079  0.8758  0.1802
  186POPC   H6X21380   0.735   6.323   6.435  1.9177  1.4896 -0.6046
  186POPC   H6Y21381   0.679   6.156   6.443 -1.3804  2.7855  0.6911
  186POPC   C3721382   0.873   6.174   6.333  0.1815 -0.2323 -0.3698
  186POPC   H7X21383   0.935   6.087   6.364 -0.6090 -1.0276 -0.9894
  186POPC   H7Y21384   0.940   6.262   6.326 -1.0800  0.7117 -1.0128
  186POPC   C3821385   0.807   6.162   6.192 -0.1209  0.1836  0.0552
  186POPC   H8X21386   0.711   6.109   6.212  0.8257 -1.0501  1.5875
  186POPC   H8Y21387   0.864   6.098   6.122  0.0054  1.2349 -0.8262
  186POPC   C3921388   0.788   6.283   6.102 -0.1168 -0.1360  0.3132
  186POPC   H9X21389   0.872   6.356   6.112 -0.2782 -0.0006  0.6990
  186POPC   H9Y21390   0.695   6.333   6.136 -0.7188 -1.2359  0.3264
  186POPC  C31021391   0.779   6.245   5.953 -0.0857  0.2158 -0.8227
  186POPC  H10X21392   0.866   6.188   5.914 -0.2568 -0.9074  0.3392
  186POPC  H10Y21393   0.765   6.335   5.891  1.5347  0.2626 -1.1638
  186POPC  C31121394   0.660   6.142   5.934  0.6275  0.4392  0.1664
  186POPC  H11X21395   0.565   6.188   5.969  0.8670 -0.7500  2.6212
  186POPC  H11Y21396   0.670   6.058   6.006 -0.4851 -1.1022 -1.4008
  186POPC  C31221397   0.662   6.078   5.799 -0.0610 -0.3972 -0.2190
  186POPC  H12X21398   0.580   6.004   5.787  0.1818 -0.8003  0.5086
  186POPC  H12Y21399   0.761   6.028   5.800 -0.2132 -0.7440  1.2546
  186POPC  C31321400   0.637   6.185   5.691 -0.1079  0.0129 -0.3677
  186POPC  H13X21401   0.715   6.264   5.686  0.8716 -0.8046  1.2285
  186POPC  H13Y21402   0.548   6.244   5.722  0.8393  1.3677 -0.1837
  186POPC  C31421403   0.611   6.114   5.554 -0.2053 -0.8100  0.4492
  186POPC  H14X21404   0.517   6.055   5.554  0.2079 -1.4789 -0.2214
  186POPC  H14Y21405   0.698   6.046   5.544  1.6048  1.2663  1.1907
  186POPC  C31521406   0.602   6.205   5.435  0.0074  0.2979  0.6479
  186POPC  H15X21407   0.679   6.285   5.427 -1.1921  1.3140 -2.5999
  186POPC  H15Y21408   0.509   6.264   5.452 -1.0943 -1.0047 -0.6304
  186POPC  C31621409   0.589   6.133   5.300  0.4766 -0.5712 -1.4891
  186POPC  H16X21410   0.511   6.057   5.324 -1.7183  1.7993 -0.6350
  186POPC  H16Y21411   0.687   6.084   5.281  1.8023 -0.1040  2.9429
  186POPC  H16Z21412   0.553   6.193   5.214 -0.5502  2.8145  1.1057
  187POPC     N21413   2.589   2.752   2.820  0.3048 -0.0014  0.2518
  187POPC   C1221414   2.708   2.850   2.811 -0.4591  0.2025 -0.1666
  187POPC  H12A21415   2.669   2.949   2.828  0.3060  0.6181 -0.7535
  187POPC  H12B21416   2.748   2.853   2.711 -0.1536 -0.9426 -0.0899
  187POPC   C1321417   2.523   2.767   2.954 -0.1508 -0.4559  0.0666
  187POPC  H13A21418   2.463   2.679   2.977  0.7736 -1.0515  0.2709
  187POPC  H13B21419   2.608   2.771   3.020  2.5247  0.8646 -3.1898
  187POPC  H13C21420   2.466   2.858   2.956 -0.4160 -0.6102 -0.4358
  187POPC   C1421421   2.508   2.784   2.709  0.2122  0.0365  0.2578
  187POPC  H14A21422   2.450   2.875   2.719 -0.4140 -0.1571 -1.3864
  187POPC  H14B21423   2.553   2.780   2.611 -1.8388 -0.3725 -0.7163
  187POPC  H14C21424   2.430   2.710   2.700 -0.8707  0.4805  4.0760
  187POPC   C1521425   2.635   2.605   2.810  0.0519  1.1520  0.0095
  187POPC  H15A21426   2.549   2.549   2.843  0.3449 -0.6653 -2.0770
  187POPC  H15B21427   2.714   2.590   2.882  0.0315  0.1503 -0.1697
  187POPC  H15C21428   2.665   2.575   2.711 -1.9297  3.4386 -1.3927
  187POPC   C1121429   2.833   2.814   2.898  0.3357 -0.1753  0.0789
  187POPC  H11A21430   2.912   2.892   2.892 -0.4617  0.5824 -0.8875
  187POPC  H11B21431   2.876   2.721   2.855 -0.4239 -1.4847  1.9951
  187POPC     P21432   2.879   2.704   3.126  0.3669 -0.1163 -0.2608
  187POPC   O1321433   2.999   2.758   3.193  1.1316  0.1956  0.5810
  187POPC   O1421434   2.881   2.581   3.053 -0.0326  0.3190  0.2223
  187POPC   O1221435   2.807   2.814   3.040 -0.2043 -0.3105 -0.0974
  187POPC   O1121436   2.781   2.665   3.247 -0.3955  0.0260  0.2744
  187POPC    C121437   2.688   2.757   3.295  0.4050  0.3430 -0.3571
  187POPC    HA21438   2.584   2.733   3.265  0.7356  1.0911 -2.2640
  187POPC    HB21439   2.707   2.860   3.257 -0.4212  0.8759  0.6252
  187POPC    C221440   2.700   2.762   3.452  0.0886  0.1472 -0.0691
  187POPC    HS21441   2.806   2.791   3.462  0.8387 -2.5294  0.5670
  187POPC   O2121442   2.678   2.631   3.507 -0.0483 -0.2693 -0.4710
  187POPC   C2121443   2.749   2.586   3.605  0.2685 -0.2849  0.2383
  187POPC   O2221444   2.850   2.640   3.654  0.8260  0.2508  0.4355
  187POPC   C2221445   2.701   2.442   3.637 -0.0497 -0.8205  0.2034
  187POPC   H2R21446   2.788   2.374   3.626 -0.2889 -0.7537 -3.3455
  187POPC   H2S21447   2.615   2.416   3.571 -1.4396  0.4432  1.4281
  187POPC    C321448   2.603   2.870   3.512 -0.6708 -0.7913  0.0445
  187POPC    HX21449   2.501   2.829   3.495 -0.1477 -1.0995 -2.9238
  187POPC    HY21450   2.605   2.962   3.450  0.1478 -2.2537 -2.2367
  187POPC   O3121451   2.622   2.895   3.650 -0.0708  0.2182 -0.1228
  187POPC   C3121452   2.737   2.954   3.678  0.5606  0.3741  0.4534
  187POPC   O3221453   2.812   2.999   3.597 -0.0857 -0.2863  0.5261
  187POPC   C3221454   2.761   2.960   3.824 -0.0402 -0.1459  0.8133
  187POPC   H2X21455   2.678   3.021   3.866  0.7666  2.9636 -1.6609
  187POPC   H2Y21456   2.847   3.025   3.851  1.9085 -2.0598 -0.4164
  187POPC   C2321457   2.651   2.431   3.783  0.5339 -0.3603 -0.4893
  187POPC   H3R21458   2.603   2.330   3.786 -1.6861  0.6585  0.0945
  187POPC   H3S21459   2.574   2.507   3.805  0.9610  0.2256 -0.9846
  187POPC   C2421460   2.762   2.440   3.892  0.3468  0.1459 -0.3834
  187POPC   H4R21461   2.827   2.527   3.869  1.7778 -0.2910  1.6654
  187POPC   H4S21462   2.836   2.357   3.885  1.8086  0.8924  3.6169
  187POPC   C2521463   2.698   2.450   4.035 -0.3670 -0.6728 -0.3021
  187POPC   H5R21464   2.620   2.371   4.048  1.4497 -2.4273  0.5796
  187POPC   H5S21465   2.641   2.545   4.034  0.1580 -0.1465  3.5638
  187POPC   C2621466   2.798   2.447   4.153 -0.0690 -0.4317  0.2164
  187POPC   H6R21467   2.881   2.515   4.124 -0.1469 -1.4898 -2.8409
  187POPC   H6S21468   2.848   2.347   4.157  1.7252  0.1626 -3.1456
  187POPC   C2721469   2.724   2.486   4.281 -0.3698 -0.2303 -0.3633
  187POPC   H7R21470   2.646   2.411   4.304 -1.1687  0.0684 -1.9326
  187POPC   H7S21471   2.670   2.580   4.257  0.1302 -0.2890 -1.7884
  187POPC   C2821472   2.818   2.514   4.398 -0.2598 -0.8351 -1.0819
  187POPC   H8R21473   2.914   2.563   4.369 -0.3323  0.2739  0.4348
  187POPC   H8S21474   2.864   2.413   4.411  0.1830 -0.7142 -1.6451
  187POPC   C2921475   2.751   2.567   4.522  0.2852  0.0950 -0.4285
  187POPC   H9121476   2.643   2.582   4.524  0.0189 -1.6826  0.4157
  187POPC  C21021477   2.810   2.610   4.639 -0.3241 -0.2478  0.9680
  187POPC  H10121478   2.755   2.628   4.733 -0.3364 -3.1714  1.6083
  187POPC  C21121479   2.957   2.610   4.670 -0.2075 -0.2120 -0.3502
  187POPC  H11R21480   3.000   2.712   4.681 -1.0440 -0.0130  1.4232
  187POPC  H11S21481   3.017   2.554   4.594  0.8193  1.4649 -0.8147
  187POPC  C21221482   2.977   2.541   4.809  0.0831  0.1640 -0.4208
  187POPC  H12R21483   3.073   2.484   4.817 -0.1610 -0.0152  1.9250
  187POPC  H12S21484   2.905   2.457   4.821 -0.8933  1.1604  0.9886
  187POPC  C21321485   2.966   2.637   4.927  0.2918  0.7792 -0.5649
  187POPC  H13R21486   2.862   2.671   4.946  0.2308  0.3149 -0.0292
  187POPC  H13S21487   3.025   2.729   4.907  1.3253  0.5075  1.0505
  187POPC  C21421488   3.000   2.564   5.060 -0.3262  0.0473 -0.2072
  187POPC  H14R21489   2.922   2.485   5.072 -1.1060  0.8447  0.0884
  187POPC  H14S21490   2.969   2.627   5.146 -0.3202  1.9706 -1.5628
  187POPC  C21521491   3.145   2.520   5.071  0.5270 -0.3589 -0.0809
  187POPC  H15R21492   3.216   2.601   5.046 -1.6612  2.0255  0.9812
  187POPC  H15S21493   3.149   2.440   4.994 -0.0993 -0.9151  0.4457
  187POPC  C21621494   3.171   2.461   5.209  0.2316  0.3835  0.4993
  187POPC  H16R21495   3.138   2.526   5.293  0.7336  0.4250  0.6717
  187POPC  H16S21496   3.280   2.442   5.221  0.7199  1.1232 -2.0559
  187POPC  C21721497   3.096   2.325   5.215 -0.2510 -0.1741 -0.4124
  187POPC  H17R21498   3.123   2.269   5.122 -0.7815  1.1882 -1.4189
  187POPC  H17S21499   2.986   2.341   5.213 -0.6422 -2.3049  0.7171
  187POPC  C21821500   3.123   2.244   5.345  0.7856 -0.1395  0.5877
  187POPC  H18R21501   3.075   2.145   5.329  2.3520 -0.5741 -2.0649
  187POPC  H18S21502   3.081   2.287   5.438 -0.1276  2.1221 -0.7848
  187POPC  H18T21503   3.232   2.228   5.361  0.8853 -0.0569  0.0018
  187POPC   C3321504   2.778   2.821   3.891 -0.1741  0.2983  0.3112
  187POPC   H3X21505   2.884   2.793   3.869  0.3678  1.5222  1.2477
  187POPC   H3Y21506   2.705   2.749   3.849  1.0839 -0.3522 -0.8786
  187POPC   C3421507   2.781   2.808   4.044  0.0385  0.0748 -0.4921
  187POPC   H4X21508   2.827   2.711   4.071  0.1040 -0.1927 -1.5313
  187POPC   H4Y21509   2.676   2.801   4.079 -0.6554 -0.0164 -2.4406
  187POPC   C3521510   2.849   2.927   4.118 -0.1432 -0.5591  0.3497
  187POPC   H5X21511   2.795   3.020   4.090 -0.8866 -0.1784  2.8189
  187POPC   H5Y21512   2.952   2.939   4.080 -0.0507 -1.6081  0.2504
  187POPC   C3621513   2.846   2.925   4.273  0.0759 -0.3268  0.1710
  187POPC   H6X21514   2.897   2.832   4.303 -2.4785 -1.7718  0.3429
  187POPC   H6Y21515   2.740   2.910   4.303 -1.1636  2.0233 -2.5381
  187POPC   C3721516   2.918   3.042   4.339  0.0888 -0.2396  0.0096
  187POPC   H7X21517   2.854   3.133   4.334 -0.8291 -0.9210 -3.5080
  187POPC   H7Y21518   3.010   3.060   4.278 -1.5620 -0.2765 -2.6736
  187POPC   C3821519   2.942   3.030   4.492 -0.4943 -0.2497  0.1783
  187POPC   H8X21520   3.025   3.101   4.516 -0.5068  0.7787 -2.5089
  187POPC   H8Y21521   2.992   2.932   4.508 -0.1479 -0.5463 -2.3288
  187POPC   C3921522   2.822   3.046   4.580 -0.4698  0.0451 -0.7279
  187POPC   H9X21523   2.734   2.989   4.544 -0.5655  0.7190 -1.5924
  187POPC   H9Y21524   2.789   3.151   4.595 -0.3694  0.0406 -0.4648
  187POPC  C31021525   2.842   3.000   4.722 -1.2386  0.3525 -0.1060
  187POPC  H10X21526   2.852   2.889   4.717 -2.2516  0.2477 -0.0272
  187POPC  H10Y21527   2.746   3.022   4.774  0.0256  1.9243  1.7428
  187POPC  C31121528   2.963   3.065   4.790  0.8205  0.5495  0.5974
  187POPC  H11X21529   2.965   3.169   4.750 -1.0247  0.4800  0.2576
  187POPC  H11Y21530   3.061   3.029   4.751  1.4006  1.9730  0.6627
  187POPC  C31221531   2.964   3.066   4.941 -0.0049 -0.0452  0.0052
  187POPC  H12X21532   2.993   2.961   4.965  1.6584  0.0405 -1.4117
  187POPC  H12Y21533   2.865   3.090   4.984  1.5029  1.2094  3.0823
  187POPC  C31321534   3.069   3.165   4.985 -1.2313 -0.5864 -0.7156
  187POPC  H13X21535   3.035   3.271   4.981  1.6229  0.5120  1.2716
  187POPC  H13Y21536   3.163   3.135   4.934  0.0001  1.2688  0.3756
  187POPC  C31421537   3.090   3.138   5.131  0.2888  0.0427  0.1919
  187POPC  H14X21538   3.178   3.201   5.156  1.8172 -2.4412  1.4825
  187POPC  H14Y21539   3.119   3.033   5.153  2.3516  0.7065  0.8425
  187POPC  C31521540   2.968   3.181   5.217  0.1676 -0.8155 -0.4915
  187POPC  H15X21541   2.884   3.114   5.191  0.8200 -1.7571 -0.2206
  187POPC  H15Y21542   2.927   3.284   5.203  1.8259 -0.0058  0.2592
  187POPC  C31621543   2.999   3.166   5.364  0.1304  0.4069  0.2233
  187POPC  H16X21544   3.052   3.070   5.373 -0.2103  0.1841 -0.0859
  187POPC  H16Y21545   2.907   3.160   5.427 -1.4260 -1.5253 -2.0444
  187POPC  H16Z21546   3.064   3.243   5.410 -1.5050  2.4132 -0.6412
  188POPC     N21547   0.954   2.388   3.044  0.9728 -0.1824  0.9288
  188POPC   C1221548   1.033   2.257   3.049  0.8108 -0.4371 -0.7636
  188POPC  H12A21549   0.970   2.184   3.000 -0.5907  0.6025 -0.5586
  188POPC  H12B21550   1.032   2.228   3.153 -1.9612  2.8905  0.3026
  188POPC   C1321551   0.949   2.445   2.909  0.2508  0.2287  0.2066
  188POPC  H13A21552   1.039   2.425   2.853  0.7824  0.3888  0.9857
  188POPC  H13B21553   0.871   2.395   2.855  1.1276 -1.8406  0.7691
  188POPC  H13C21554   0.929   2.551   2.917  0.3707  0.3197 -0.6171
  188POPC   C1421555   0.815   2.371   3.099 -0.3272 -0.0610 -0.2297
  188POPC  H14A21556   0.773   2.469   3.113 -0.6620 -0.2370  0.0176
  188POPC  H14B21557   0.751   2.318   3.030 -0.4581 -0.9786  0.5669
  188POPC  H14C21558   0.812   2.313   3.190  0.1097  1.1882  0.6070
  188POPC   C1521559   1.010   2.493   3.132 -0.4110  0.2303 -0.5081
  188POPC  H15A21560   0.957   2.587   3.140  0.3084  0.6926 -1.0654
  188POPC  H15B21561   1.107   2.518   3.093  0.1451  1.9796  1.8179
  188POPC  H15C21562   1.019   2.455   3.233 -0.1866 -0.0002 -0.6149
  188POPC   C1121563   1.178   2.254   2.995  0.3065 -0.1375  0.3562
  188POPC  H11A21564   1.166   2.248   2.885  2.3865 -0.2554  0.0882
  188POPC  H11B21565   1.236   2.161   3.012  3.7783  1.7277 -0.3549
  188POPC     P21566   1.340   2.364   3.164 -0.2051  0.1982 -0.1869
  188POPC   O1321567   1.285   2.478   3.251  0.0918  0.0369  0.1569
  188POPC   O1421568   1.480   2.375   3.124  0.5085  0.2465  0.0504
  188POPC   O1221569   1.254   2.365   3.030 -0.6311 -0.0438  0.1344
  188POPC   O1121570   1.318   2.217   3.224  0.3609 -1.1309  0.2885
  188POPC    C121571   1.247   2.190   3.343 -0.6828 -0.0919  0.2476
  188POPC    HA21572   1.213   2.085   3.342 -0.6643 -0.0925 -0.1997
  188POPC    HB21573   1.158   2.254   3.361 -1.0779 -1.4060  3.9023
  188POPC    C221574   1.326   2.205   3.476  0.5339 -0.0573  0.3780
  188POPC    HS21575   1.330   2.316   3.478 -0.0233 -0.0296  0.1431
  188POPC   O2121576   1.447   2.133   3.471  0.0877 -0.1302 -0.3681
  188POPC   C2121577   1.555   2.193   3.521  0.5754  0.7148  0.3593
  188POPC   O2221578   1.561   2.298   3.580 -0.0898  0.0872  0.5226
  188POPC   C2221579   1.672   2.099   3.512  0.3773  0.2527  0.8047
  188POPC   H2R21580   1.701   2.083   3.406 -0.9477 -0.5572  0.5334
  188POPC   H2S21581   1.631   2.006   3.557 -1.3051  0.8384  0.5577
  188POPC    C321582   1.240   2.157   3.598  0.0074 -0.6486 -0.1434
  188POPC    HX21583   1.231   2.046   3.591 -0.1563 -0.6753  0.4931
  188POPC    HY21584   1.135   2.192   3.583 -0.4496 -1.3875  1.1947
  188POPC   O3121585   1.291   2.201   3.724  0.0211  0.0817 -0.4676
  188POPC   C3121586   1.291   2.336   3.753 -0.3820 -0.4636 -0.0247
  188POPC   O3221587   1.232   2.420   3.688  0.3996  0.1116 -0.3027
  188POPC   C3221588   1.358   2.355   3.889  0.4013 -0.1686 -0.0253
  188POPC   H2X21589   1.307   2.278   3.951 -0.9362  0.7253  0.0203
  188POPC   H2Y21590   1.331   2.456   3.927  2.0091  0.2351  0.1064
  188POPC   C2321591   1.804   2.140   3.582 -0.3213  0.2011 -0.6708
  188POPC   H3R21592   1.790   2.175   3.686  0.3834 -1.3336 -0.0372
  188POPC   H3S21593   1.865   2.217   3.531  0.2343 -0.5538 -1.1783
  188POPC   C2421594   1.905   2.025   3.601 -0.3717 -0.0016 -0.1471
  188POPC   H4R21595   2.006   2.063   3.631  0.1181 -1.3235 -0.0742
  188POPC   H4S21596   1.900   1.968   3.506 -0.1283  0.9126 -0.7208
  188POPC   C2521597   1.871   1.924   3.708  0.3331 -0.9438 -0.3691
  188POPC   H5R21598   1.959   1.857   3.696  0.5977 -0.7134  0.2624
  188POPC   H5S21599   1.778   1.867   3.687  0.7044 -2.2662  1.3892
  188POPC   C2621600   1.858   1.983   3.850  0.1305  0.8006 -0.5223
  188POPC   H6R21601   1.754   2.020   3.858 -0.3912 -0.8534  1.4237
  188POPC   H6S21602   1.931   2.061   3.879  1.6578 -0.8347  0.2897
  188POPC   C2721603   1.879   1.864   3.952 -0.1311  0.5062 -0.4138
  188POPC   H7R21604   1.981   1.819   3.943  0.1420  0.0871  3.0403
  188POPC   H7S21605   1.818   1.774   3.928 -0.7403  0.6438  0.5450
  188POPC   C2821606   1.856   1.903   4.098  0.0297 -0.0812  0.0944
  188POPC   H8R21607   1.840   1.807   4.151 -0.5407  0.0591  0.1875
  188POPC   H8S21608   1.766   1.967   4.111  0.3200 -0.0966  2.7387
  188POPC   C2921609   1.972   1.979   4.153 -0.5710 -0.0217 -0.5110
  188POPC   H9121610   2.020   2.058   4.093  2.4948 -1.9415 -0.8268
  188POPC  C21021611   2.035   1.949   4.273  0.1148  1.0596  0.5374
  188POPC  H10121612   2.118   2.017   4.296 -0.7456  2.7631 -1.1247
  188POPC  C21121613   1.999   1.846   4.385 -0.2611 -0.3337  0.8755
  188POPC  H11R21614   2.074   1.767   4.362  0.1473  1.1238 -3.7989
  188POPC  H11S21615   1.895   1.810   4.370 -1.1177  1.7471  1.4801
  188POPC  C21221616   2.013   1.903   4.524 -0.0842 -0.2995  1.3448
  188POPC  H12R21617   1.942   1.988   4.536  1.6395  1.0839  2.1061
  188POPC  H12S21618   2.118   1.938   4.533  0.1734  0.3935 -2.6015
  188POPC  C21321619   1.972   1.809   4.642  0.3107 -0.0069  0.3496
  188POPC  H13R21620   2.037   1.720   4.626  0.6940  0.3034  0.1462
  188POPC  H13S21621   1.863   1.791   4.631  0.7796 -2.7649 -0.4051
  188POPC  C21421622   2.001   1.877   4.774 -0.4284  0.0621 -0.7155
  188POPC  H14R21623   1.953   1.977   4.771  0.4080  0.5601  1.1652
  188POPC  H14S21624   2.111   1.871   4.790 -0.4293 -2.0422 -1.1203
  188POPC  C21521625   1.927   1.804   4.888 -0.9873  0.6383 -0.2466
  188POPC  H15R21626   1.944   1.696   4.869  1.9058  1.0901 -0.6680
  188POPC  H15S21627   1.819   1.830   4.885 -0.9123  1.3737  1.6774
  188POPC  C21621628   1.993   1.838   5.025  0.1322 -0.3246 -0.4185
  188POPC  H16R21629   2.002   1.948   5.033 -1.6650 -0.2498  1.1932
  188POPC  H16S21630   2.101   1.812   5.016  0.5350  1.4702 -1.2542
  188POPC  C21721631   1.935   1.762   5.136 -0.1958 -0.3403 -0.8949
  188POPC  H17R21632   1.938   1.651   5.132 -0.1348 -0.5266  2.0820
  188POPC  H17S21633   1.828   1.792   5.144 -0.1514 -0.7268  2.4806
  188POPC  C21821634   1.995   1.780   5.278 -0.0279 -0.7640  0.0942
  188POPC  H18R21635   2.104   1.758   5.273  0.1831  0.1759  0.4257
  188POPC  H18S21636   1.956   1.708   5.354  2.8363  0.7358  3.2609
  188POPC  H18T21637   1.990   1.880   5.326 -0.6020  0.3939 -2.2706
  188POPC   C3321638   1.511   2.327   3.892 -0.0360  0.4243 -0.1794
  188POPC   H3X21639   1.561   2.398   3.822 -0.4596  1.0021  0.1057
  188POPC   H3Y21640   1.534   2.232   3.839  1.6663  0.8582 -0.3037
  188POPC   C3421641   1.570   2.325   4.034 -0.1115  0.2869  0.2705
  188POPC   H4X21642   1.523   2.246   4.095  0.9841 -2.6149 -2.3848
  188POPC   H4Y21643   1.553   2.413   4.100  0.1510  0.4023  0.1876
  188POPC   C3521644   1.728   2.310   4.027  0.1011  0.3818 -0.1203
  188POPC   H5X21645   1.756   2.365   3.935 -0.1749 -3.2165 -2.5400
  188POPC   H5Y21646   1.750   2.204   4.005 -0.0060  0.3011  0.1491
  188POPC   C3621647   1.807   2.365   4.152 -0.2013 -0.0221  1.0768
  188POPC   H6X21648   1.787   2.472   4.174  1.5373  0.2030  1.7654
  188POPC   H6Y21649   1.915   2.365   4.125 -0.9045 -2.1115 -2.2195
  188POPC   C3721650   1.785   2.295   4.283 -0.2121  0.2047  0.4524
  188POPC   H7X21651   1.819   2.190   4.286 -0.0768  0.2655  1.3019
  188POPC   H7Y21652   1.676   2.275   4.288 -0.8194  3.1418  0.6622
  188POPC   C3821653   1.847   2.367   4.400 -0.2129 -0.3990 -1.0403
  188POPC   H8X21654   1.812   2.472   4.412  0.8085 -0.2992  1.7855
  188POPC   H8Y21655   1.954   2.386   4.379  0.0229 -1.9462 -1.3105
  188POPC   C3921656   1.833   2.306   4.541  0.3518  0.8105 -0.2701
  188POPC   H9X21657   1.871   2.203   4.554  2.3969  1.6445  0.8617
  188POPC   H9Y21658   1.724   2.292   4.555  0.3677 -0.3748 -1.1869
  188POPC  C31021659   1.888   2.391   4.657  0.3331 -0.5675  0.5495
  188POPC  H10X21660   1.855   2.496   4.643 -2.8047 -1.6291 -0.8492
  188POPC  H10Y21661   1.998   2.379   4.645  0.7647  3.1296 -0.3922
  188POPC  C31121662   1.830   2.346   4.790 -0.1789  0.0497  0.2576
  188POPC  H11X21663   1.838   2.236   4.805  0.1681  0.0588  0.1544
  188POPC  H11Y21664   1.722   2.371   4.796 -0.1700 -0.2236  2.1563
  188POPC  C31221665   1.900   2.411   4.906  0.2144 -0.4807 -0.4539
  188POPC  H12X21666   1.841   2.410   4.999  1.4323  2.5914  0.4815
  188POPC  H12Y21667   1.914   2.518   4.879 -0.0813 -0.0974  0.8523
  188POPC  C31321668   2.041   2.348   4.919  0.6254 -0.4784 -0.1886
  188POPC  H13X21669   2.102   2.344   4.827 -0.6052  2.9164 -1.2931
  188POPC  H13Y21670   2.020   2.242   4.946 -2.3157  0.9761  4.5459
  188POPC  C31421671   2.116   2.415   5.030 -0.4371 -0.5611  0.6557
  188POPC  H14X21672   2.039   2.435   5.107 -2.4667 -1.1094 -1.1401
  188POPC  H14Y21673   2.150   2.516   5.000  3.5735 -1.9141  0.0589
  188POPC  C31521674   2.238   2.333   5.081 -0.1402 -0.2668 -0.1367
  188POPC  H15X21675   2.284   2.396   5.160 -1.0123 -0.8341  0.8497
  188POPC  H15Y21676   2.316   2.328   5.002  0.2254  0.5607  0.1617
  188POPC  C31621677   2.208   2.194   5.135 -0.2605  0.8197  0.3061
  188POPC  H16X21678   2.147   2.135   5.063 -1.5962  2.3029  0.1637
  188POPC  H16Y21679   2.147   2.209   5.227  0.4423  3.2796  0.4482
  188POPC  H16Z21680   2.301   2.136   5.154 -1.0922 -0.8520 -0.5527
  189SAPI   C1221681   6.593   6.165   7.871  0.4743  0.1868 -0.3249
  189SAPI    H221682   6.643   6.080   7.923 -2.1865 -1.6135 -0.4984
  189SAPI    O221683   6.468   6.192   7.940  0.5681  0.0476 -0.0579
  189SAPI   HO221684   6.404   6.242   7.889 -0.2974  0.7885  1.6972
  189SAPI   C1321685   6.691   6.281   7.868 -0.1418 -0.5189 -0.1162
  189SAPI    H321686   6.781   6.248   7.812 -0.8270  0.2789 -1.7330
  189SAPI    O321687   6.738   6.328   7.997  0.2683  0.2738 -0.5421
  189SAPI   HO321688   6.664   6.325   8.058  0.2584  0.3696 -0.5486
  189SAPI   C1421689   6.630   6.395   7.789  0.3940 -0.6742  0.7549
  189SAPI    H421690   6.545   6.433   7.851  1.1054 -0.2238  1.4854
  189SAPI    O421691   6.725   6.505   7.786  0.8385  0.4702  0.2583
  189SAPI   HO421692   6.707   6.563   7.861  0.8174 -1.5789  1.9486
  189SAPI   C1521693   6.580   6.354   7.653  0.0555  0.2005  0.4114
  189SAPI    H521694   6.676   6.336   7.600  0.2221 -0.7390  1.0028
  189SAPI    O521695   6.517   6.465   7.591 -0.6918 -0.3498 -0.1904
  189SAPI   HO521696   6.575   6.537   7.619 -1.8098  0.2717  0.6460
  189SAPI   C1621697   6.507   6.228   7.651 -0.0152 -0.0162  0.3843
  189SAPI    H621698   6.404   6.248   7.688 -0.6775 -0.8691 -0.8913
  189SAPI    O621699   6.491   6.174   7.515  0.0550  0.3521 -0.4531
  189SAPI   HO621700   6.566   6.181   7.456 -0.6596 -2.8781 -1.9521
  189SAPI   C1121701   6.568   6.113   7.735  0.3129  0.0397 -0.2112
  189SAPI    H121702   6.665   6.091   7.687  1.4070  1.4292  1.2647
  189SAPI     P21703   6.526   5.840   7.725 -0.3570 -0.0949 -0.0047
  189SAPI   O1321704   6.406   5.762   7.760  0.3562  0.3942 -0.3155
  189SAPI   O1421705   6.647   5.819   7.811 -0.0525 -0.1854 -0.4726
  189SAPI   O1221706   6.484   5.999   7.732  0.1826  0.0175 -0.0152
  189SAPI   O1121707   6.557   5.818   7.572 -0.1304 -0.2308  0.3200
  189SAPI    C121708   6.442   5.821   7.477 -0.0230 -0.1209 -0.2572
  189SAPI    HA21709   6.379   5.733   7.504 -0.4231  0.9018  2.4765
  189SAPI    HB21710   6.370   5.904   7.491  0.1348 -0.0206 -0.0440
  189SAPI    C221711   6.471   5.821   7.323  0.2691 -0.6255  0.3015
  189SAPI    HS21712   6.377   5.809   7.267  0.5581 -1.6463  0.0034
  189SAPI   O2121713   6.558   5.707   7.292  0.3822 -0.0591  0.4810
  189SAPI   C2121714   6.498   5.617   7.209  0.1114 -0.6644  0.2416
  189SAPI   O2221715   6.383   5.615   7.174  0.0830 -0.6088 -0.0370
  189SAPI   C2221716   6.613   5.524   7.160  0.4580 -0.2131  0.1609
  189SAPI   H2R21717   6.654   5.569   7.068  1.9441  0.4382  1.1046
  189SAPI   H2S21718   6.685   5.518   7.244  2.1205  0.1880 -1.1832
  189SAPI    C321719   6.517   5.961   7.278 -0.3256  0.7163 -0.0680
  189SAPI    HX21720   6.609   5.979   7.337 -0.1751 -0.3491  0.0448
  189SAPI    HY21721   6.444   6.037   7.314  1.7520  1.5160  2.7941
  189SAPI   O3121722   6.530   5.958   7.138 -0.6450  0.4638 -0.3119
  189SAPI   C3121723   6.654   5.926   7.095 -0.0698 -0.1527 -1.3935
  189SAPI   O3221724   6.749   5.904   7.169  0.5462 -0.1868 -0.6402
  189SAPI   C3221725   6.657   5.921   6.943  0.0182 -0.5390 -0.1270
  189SAPI   H2X21726   6.638   6.025   6.907  1.2266  0.5686  2.1863
  189SAPI   H2Y21727   6.578   5.847   6.917  1.8904 -2.2303 -1.2136
  189SAPI   C2321728   6.576   5.377   7.115 -0.2569  0.1623 -0.3293
  189SAPI   H3R21729   6.518   5.337   7.201  2.1977  0.6958  1.6987
  189SAPI   H3S21730   6.666   5.314   7.097  0.5022  1.4305 -1.1340
  189SAPI   C2421731   6.482   5.376   6.995 -0.9027  0.4221  0.3600
  189SAPI   H4R21732   6.386   5.432   6.999 -0.9142  0.5219 -0.9321
  189SAPI   H4S21733   6.447   5.273   6.973 -0.2999  0.9493 -3.9668
  189SAPI   C2521734   6.561   5.405   6.868  0.7171 -0.1763 -0.1870
  189SAPI   H5R21735   6.660   5.357   6.867 -0.8312 -3.8168  1.5875
  189SAPI   C2621736   6.529   5.491   6.770  0.2911  0.4684  0.0600
  189SAPI   H6R21737   6.603   5.499   6.689 -0.8084  0.2001 -0.9949
  189SAPI   C2721738   6.399   5.566   6.744 -0.5146  0.2351  0.4529
  189SAPI   H7R21739   6.431   5.665   6.704  0.1202  0.5882  1.7860
  189SAPI   H7S21740   6.338   5.577   6.836 -0.5165 -1.5885  0.7066
  189SAPI   C2821741   6.312   5.480   6.660  0.0903  0.5811 -0.0607
  189SAPI   H8R21742   6.249   5.411   6.718  0.6376 -2.1684 -2.4594
  189SAPI   C2921743   6.285   5.495   6.522  0.2869  0.5346  0.3691
  189SAPI   H9R21744   6.222   5.421   6.471 -0.6996  1.9801 -0.6116
  189SAPI  C21021745   6.353   5.587   6.419  0.5313 -0.4195  0.4339
  189SAPI  H10R21746   6.305   5.687   6.427  1.1675  0.3680 -3.6993
  189SAPI  H10S21747   6.314   5.541   6.326  0.3001  1.5038 -0.4799
  189SAPI  C21121748   6.499   5.586   6.411 -0.3012  0.0807  0.1350
  189SAPI  H11R21749   6.546   5.531   6.494 -0.0997  1.2102  0.7841
  189SAPI  C21221750   6.570   5.616   6.300  0.5862  0.2277 -0.1967
  189SAPI  H12R21751   6.678   5.598   6.312  0.8638 -0.3954 -2.9517
  189SAPI  C21321752   6.526   5.683   6.172 -0.0032 -0.9185 -0.1558
  189SAPI  H13R21753   6.566   5.786   6.171 -0.1337 -0.8602  0.2060
  189SAPI  H13S21754   6.416   5.697   6.176 -0.5173 -4.0473 -0.2487
  189SAPI  C21421755   6.545   5.609   6.042 -0.3565 -0.4351  0.2430
  189SAPI  H14R21756   6.554   5.499   6.046 -0.2484 -0.5228 -1.5841
  189SAPI  C21521757   6.568   5.664   5.922  0.3292 -0.3256  0.0038
  189SAPI  H15R21758   6.571   5.600   5.832 -0.8811 -0.2607 -0.0970
  189SAPI  C21621759   6.560   5.814   5.891 -0.3537  0.1868 -0.1455
  189SAPI  H16R21760   6.666   5.845   5.879 -1.0780  2.4725 -1.1196
  189SAPI  H16S21761   6.490   5.865   5.960 -1.0768 -0.8892 -0.0438
  189SAPI  C21721762   6.504   5.830   5.744  0.5798  0.4284 -0.1402
  189SAPI  H17R21763   6.419   5.762   5.724 -0.3784  1.2359  1.0313
  189SAPI  H17S21764   6.594   5.814   5.681  2.2607 -1.9322  2.6225
  189SAPI  C21821765   6.451   5.973   5.714 -0.1064 -0.2318 -0.1033
  189SAPI  H18R21766   6.487   6.032   5.801 -1.1071 -0.8076  0.7089
  189SAPI  H18S21767   6.342   5.966   5.730  0.1239 -0.8243  1.3920
  189SAPI  C21921768   6.499   6.033   5.588 -0.0792  0.2768 -0.1476
  189SAPI  H19R21769   6.555   5.949   5.541 -0.4023  0.2216 -0.4401
  189SAPI  H19S21770   6.565   6.119   5.613 -0.6336  0.0362  2.3136
  189SAPI  C22021771   6.388   6.068   5.498 -0.8476 -0.1233  0.2995
  189SAPI  H20R21772   6.410   6.148   5.425 -1.0653  0.0669  0.4381
  189SAPI  H20S21773   6.291   6.091   5.548 -0.7411  1.7868 -0.3021
  189SAPI  H20T21774   6.368   5.986   5.426  1.3554  1.1245 -1.8540
  189SAPI   C3321775   6.782   5.859   6.891  0.8508  0.7265 -0.6780
  189SAPI   H3X21776   6.805   5.767   6.950  0.0334  0.0167 -1.4413
  189SAPI   H3Y21777   6.872   5.924   6.899  2.0192 -0.9227  0.1379
  189SAPI   C3421778   6.767   5.822   6.742  0.3626 -0.8301 -0.4351
  189SAPI   H4X21779   6.674   5.765   6.721  1.0814 -1.8604 -0.8827
  189SAPI   H4Y21780   6.849   5.752   6.718  0.3017 -0.9855 -0.1954
  189SAPI   C3521781   6.758   5.956   6.663  0.2536 -0.6179 -0.7096
  189SAPI   H5X21782   6.842   6.018   6.700  0.8081 -2.2603  0.9406
  189SAPI   H5Y21783   6.663   6.010   6.687  0.3395  0.1154 -1.9708
  189SAPI   C3621784   6.763   5.931   6.513  0.4869  0.4772 -0.0110
  189SAPI   H6X21785   6.693   5.853   6.476  0.7974 -1.3463  2.9679
  189SAPI   H6Y21786   6.861   5.888   6.484 -0.3174 -2.1263  0.8684
  189SAPI   C3721787   6.768   6.061   6.426  0.5431 -0.8555 -0.3301
  189SAPI   H7X21788   6.867   6.106   6.446 -0.5721  2.0403 -0.8064
  189SAPI   H7Y21789   6.702   6.136   6.474 -0.1512 -1.1596 -0.7832
  189SAPI   C3821790   6.721   6.047   6.282 -0.1896 -0.6835 -0.0213
  189SAPI   H8X21791   6.618   6.010   6.299 -0.3476  0.3191  1.3129
  189SAPI   H8Y21792   6.783   5.962   6.243 -1.1227 -2.6296  2.4780
  189SAPI   C3921793   6.720   6.174   6.196  0.3545  0.0325  0.7088
  189SAPI   H9X21794   6.824   6.204   6.168 -0.5559  1.7327 -1.1114
  189SAPI   H9Y21795   6.676   6.254   6.258 -0.0508 -0.1432  0.6502
  189SAPI  C31021796   6.639   6.158   6.062  0.1164 -0.5098  0.0493
  189SAPI  H10X21797   6.541   6.113   6.088  0.3897 -0.0531  2.0198
  189SAPI  H10Y21798   6.690   6.084   5.996 -1.0629 -1.6878  0.3945
  189SAPI  C31121799   6.633   6.299   5.993 -0.0455 -0.1607  0.8540
  189SAPI  H11X21800   6.738   6.322   5.965  0.0066 -0.6610  0.6261
  189SAPI  H11Y21801   6.586   6.369   6.066 -0.4563  0.1949  0.2558
  189SAPI  C31221802   6.556   6.293   5.862  0.5269  0.7664 -0.0674
  189SAPI  H12X21803   6.457   6.243   5.870  1.0437 -0.1309  0.7762
  189SAPI  H12Y21804   6.613   6.232   5.789 -0.4638 -0.1534 -0.1001
  189SAPI  C31321805   6.530   6.428   5.797 -0.7348 -0.3723 -0.4449
  189SAPI  H13X21806   6.624   6.481   5.773 -1.3330 -0.2777 -2.9062
  189SAPI  H13Y21807   6.477   6.486   5.875 -0.0384  1.1688 -1.0720
  189SAPI  C31421808   6.434   6.450   5.678  0.4422  0.0550  0.0613
  189SAPI  H14X21809   6.338   6.397   5.693 -0.6515  1.9729  0.1990
  189SAPI  H14Y21810   6.472   6.396   5.589  1.3249 -1.3382  1.2396
  189SAPI  C31521811   6.399   6.592   5.640  0.2626 -0.3761  0.5616
  189SAPI  H15X21812   6.502   6.633   5.631 -0.2910  0.6498 -2.6786
  189SAPI  H15Y21813   6.326   6.636   5.711 -1.3180 -1.8155 -0.0849
  189SAPI  C31621814   6.337   6.598   5.497  0.5976 -0.3171 -0.3858
  189SAPI  H16X21815   6.407   6.547   5.426 -0.3423 -1.8779 -0.2308
  189SAPI  H16Y21816   6.331   6.703   5.459 -0.9858 -0.4576 -0.5983
  189SAPI  C31721817   6.197   6.534   5.496  0.7206 -0.3289 -0.0508
  189SAPI  H17X21818   6.131   6.571   5.577 -2.4877 -1.5125 -1.9352
  189SAPI  H17Y21819   6.212   6.429   5.527 -1.2673 -0.8023 -0.5694
  189SAPI  C31821820   6.117   6.535   5.363 -0.2751 -0.4932 -0.3018
  189SAPI  H18X21821   6.090   6.640   5.338  0.0409  0.5043  3.0781
  189SAPI  H18Y21822   6.021   6.483   5.383  0.5113 -2.3096 -1.0153
  189SAPI  H18Z21823   6.173   6.487   5.279  0.8611 -1.9482  1.2331
  190SAPI   C1221824   5.526   2.631   7.610  0.8815  0.4366  0.5760
  190SAPI    H221825   5.621   2.588   7.646  1.9303  2.7810  0.7997
  190SAPI    O221826   5.400   2.574   7.653 -0.5547 -0.3264 -0.3792
  190SAPI   HO221827   5.377   2.499   7.599 -0.1251  0.5649 -1.8783
  190SAPI   C1321828   5.542   2.770   7.666 -0.0263 -1.4405 -0.9919
  190SAPI    H321829   5.637   2.811   7.624  1.0515  0.7761  3.0576
  190SAPI    O321830   5.547   2.763   7.816  0.5126 -0.2000  0.5217
  190SAPI   HO321831   5.498   2.684   7.840 -0.2846  0.0756 -0.1629
  190SAPI   C1421832   5.436   2.869   7.605 -0.4160 -0.2292  0.3663
  190SAPI    H421833   5.340   2.850   7.656 -1.7889  0.3761 -1.8769
  190SAPI    O421834   5.454   3.001   7.644 -0.6209 -0.5023 -0.3223
  190SAPI   HO421835   5.529   3.030   7.591 -0.8726 -2.6725 -2.0255
  190SAPI   C1521836   5.403   2.855   7.457 -0.4954 -0.1770 -0.9576
  190SAPI    H521837   5.485   2.913   7.410  1.0493 -0.8495  0.8069
  190SAPI    O521838   5.284   2.937   7.428  0.4992 -0.9115 -0.0793
  190SAPI   HO521839   5.309   3.029   7.424  0.0427 -0.7940 -0.1668
  190SAPI   C1621840   5.406   2.706   7.405 -0.8215  0.5840  0.1507
  190SAPI    H621841   5.311   2.656   7.435  0.7358 -2.2180  0.6616
  190SAPI    O621842   5.420   2.709   7.266  0.2290  0.4808 -0.2360
  190SAPI   HO621843   5.481   2.642   7.234 -0.6862  0.0954 -1.2826
  190SAPI   C1121844   5.529   2.639   7.464 -0.0169  0.0485  0.4534
  190SAPI    H121845   5.622   2.694   7.439  1.4105 -1.8682  1.3055
  190SAPI     P21846   5.613   2.429   7.300 -0.1641  0.1315 -0.2142
  190SAPI   O1321847   5.734   2.355   7.352 -0.3804  0.1549  0.3658
  190SAPI   O1421848   5.626   2.522   7.182 -0.4909 -0.6642  0.7785
  190SAPI   O1221849   5.548   2.510   7.427  0.0782 -0.1309  0.1541
  190SAPI   O1121850   5.502   2.327   7.261  0.2273  0.8173  0.6403
  190SAPI    C121851   5.395   2.360   7.179 -0.2413 -0.0813 -0.0806
  190SAPI    HA21852   5.354   2.454   7.222 -1.0684 -0.4928  0.0511
  190SAPI    HB21853   5.421   2.373   7.071  1.3239  0.9831  0.3948
  190SAPI    C221854   5.279   2.254   7.181 -0.8514  0.5425 -0.0447
  190SAPI    HS21855   5.279   2.205   7.281 -0.8705 -2.1757 -1.3019
  190SAPI   O2121856   5.280   2.163   7.065  0.7220 -0.3425 -0.6943
  190SAPI   C2121857   5.360   2.059   7.079 -0.5008  0.7142  0.0910
  190SAPI   O2221858   5.413   2.023   7.181 -0.0638 -0.0856 -0.3766
  190SAPI   C2221859   5.381   2.005   6.941  0.3590 -0.1113  0.2774
  190SAPI   H2R21860   5.284   1.996   6.889  0.2583 -0.9726  0.5913
  190SAPI   H2S21861   5.454   2.068   6.887 -0.2771  0.1803 -0.2526
  190SAPI    C321862   5.148   2.340   7.169  0.1827 -0.8169 -0.2485
  190SAPI    HX21863   5.141   2.391   7.267 -1.7216 -0.2969 -0.6151
  190SAPI    HY21864   5.053   2.285   7.153 -0.6542  0.9144 -1.5809
  190SAPI   O3121865   5.154   2.433   7.058  0.0886 -0.8496 -0.6190
  190SAPI   C3121866   5.039   2.459   6.990 -0.2860 -0.4113 -0.2878
  190SAPI   O3221867   4.927   2.419   7.021  0.2740 -0.1809  0.0841
  190SAPI   C3221868   5.073   2.559   6.878  0.0174 -0.5988 -0.2887
  190SAPI   H2X21869   5.151   2.632   6.909 -0.2413 -1.1086  1.7115
  190SAPI   H2Y21870   4.985   2.621   6.852  1.0133  1.1695  0.4249
  190SAPI   C2321871   5.434   1.865   6.951 -0.0786  0.7025 -0.0771
  190SAPI   H3R21872   5.361   1.803   7.008 -1.4923 -0.2849 -2.7822
  190SAPI   H3S21873   5.530   1.862   7.007  0.5404  0.3178 -1.1328
  190SAPI   C2421874   5.470   1.796   6.820 -0.4462 -0.5165  0.0998
  190SAPI   H4R21875   5.535   1.862   6.758 -1.4022  0.9742  0.6067
  190SAPI   H4S21876   5.377   1.772   6.765 -1.5699  3.8624 -0.3275
  190SAPI   C2521877   5.549   1.670   6.835  0.3980  0.3691  0.2979
  190SAPI   H5R21878   5.540   1.618   6.931  3.7729 -1.3950 -0.1916
  190SAPI   C2621879   5.635   1.620   6.749 -0.4836 -1.0896  0.1810
  190SAPI   H6R21880   5.696   1.536   6.785  0.0408 -0.5293  0.6295
  190SAPI   C2721881   5.675   1.673   6.610 -0.6424 -0.3592 -0.5734
  190SAPI   H7R21882   5.603   1.754   6.583 -0.5681 -0.7330 -1.9670
  190SAPI   H7S21883   5.651   1.586   6.545 -2.2017 -0.7628  0.4816
  190SAPI   C2821884   5.818   1.720   6.597  0.4721  0.7653 -0.3425
  190SAPI   H8R21885   5.894   1.669   6.657 -1.5646 -2.8935 -0.5971
  190SAPI   C2921886   5.853   1.813   6.504  0.8707  0.1861 -0.1838
  190SAPI   H9R21887   5.958   1.842   6.494  1.4078 -1.0275  1.4147
  190SAPI  C21021888   5.766   1.872   6.399  0.2223  0.3403 -0.2433
  190SAPI  H10R21889   5.687   1.929   6.453 -0.5564 -1.2323  0.3355
  190SAPI  H10S21890   5.702   1.798   6.347 -0.4847 -0.8920  2.2316
  190SAPI  C21121891   5.823   1.962   6.291  0.4297 -0.0290  0.3615
  190SAPI  H11R21892   5.843   2.063   6.329  0.4240 -0.3798  1.3386
  190SAPI  C21221893   5.849   1.931   6.159  0.2317  0.3615 -0.6881
  190SAPI  H12R21894   5.903   2.004   6.098 -0.9832  0.8930 -1.1772
  190SAPI  C21321895   5.831   1.799   6.091  1.0177 -0.4811  0.6472
  190SAPI  H13R21896   5.848   1.707   6.150 -0.3200 -0.7058  0.7231
  190SAPI  H13S21897   5.912   1.789   6.016  0.5350 -3.0281  0.3821
  190SAPI  C21421898   5.690   1.805   6.028 -0.3284  0.4394 -0.0436
  190SAPI  H14R21899   5.605   1.797   6.097  0.2536 -0.4233  0.5947
  190SAPI  C21521900   5.653   1.818   5.899 -0.4129 -0.0313 -0.1270
  190SAPI  H15R21901   5.549   1.804   5.865 -0.1748 -0.0998 -0.8524
  190SAPI  C21621902   5.755   1.839   5.790 -0.6734  0.1684 -0.2964
  190SAPI  H16R21903   5.840   1.895   5.835  0.5232  0.4344 -2.7604
  190SAPI  H16S21904   5.711   1.902   5.709 -0.2204 -1.2695 -1.6955
  190SAPI  C21721905   5.815   1.714   5.736 -0.3323  0.3389 -0.1177
  190SAPI  H17R21906   5.731   1.661   5.685 -0.5898 -1.1499  1.7347
  190SAPI  H17S21907   5.847   1.642   5.815 -2.6214  0.3620  0.9276
  190SAPI  C21821908   5.928   1.750   5.632 -0.4753 -0.0886 -0.2567
  190SAPI  H18R21909   5.884   1.821   5.558  1.5595  1.4270 -0.0849
  190SAPI  H18S21910   5.949   1.664   5.565 -0.3948  1.0791 -1.7790
  190SAPI  C21921911   6.066   1.791   5.693 -0.2434 -0.2975  0.1009
  190SAPI  H19R21912   6.117   1.699   5.726  0.4435  0.2303  0.5390
  190SAPI  H19S21913   6.048   1.854   5.782 -1.2001  1.0421 -0.9875
  190SAPI  C22021914   6.150   1.868   5.590 -0.2580  0.6459 -0.3711
  190SAPI  H20R21915   6.252   1.861   5.633 -0.5386  1.0212  0.3546
  190SAPI  H20S21916   6.114   1.973   5.591  0.0402  0.7523  1.2358
  190SAPI  H20T21917   6.153   1.823   5.488 -0.5388  0.6512 -0.3824
  190SAPI   C3321918   5.114   2.485   6.745 -0.5033  0.5591 -0.3727
  190SAPI   H3X21919   5.167   2.388   6.764  0.5173  1.1162 -0.2922
  190SAPI   H3Y21920   5.176   2.544   6.674  0.2645 -0.7698 -0.8601
  190SAPI   C3421921   4.992   2.447   6.660 -0.0412 -0.8044  0.1307
  190SAPI   H4X21922   4.925   2.535   6.647 -1.8609 -2.4546 -2.7463
  190SAPI   H4Y21923   4.929   2.368   6.707 -0.2168 -1.9351 -1.8800
  190SAPI   C3521924   5.028   2.381   6.527 -0.2464  0.6201  0.3791
  190SAPI   H5X21925   4.946   2.325   6.477  0.7223  0.0625 -0.6372
  190SAPI   H5Y21926   5.084   2.289   6.551 -0.4467  0.3178 -0.2726
  190SAPI   C3621927   5.080   2.475   6.419 -0.0711  0.1652 -0.0375
  190SAPI   H6X21928   5.189   2.496   6.430 -0.2845  1.9050 -0.9653
  190SAPI   H6Y21929   5.016   2.566   6.421 -0.2476  0.0517 -0.3510
  190SAPI   C3721930   5.053   2.415   6.276 -0.6566  0.0867  0.4773
  190SAPI   H7X21931   4.943   2.420   6.263 -0.3704  3.2071 -1.7244
  190SAPI   H7Y21932   5.086   2.309   6.266 -2.2784 -0.2161 -2.7859
  190SAPI   C3821933   5.114   2.505   6.159 -0.5618 -0.4843 -0.5469
  190SAPI   H8X21934   5.220   2.516   6.191 -0.3238  3.0718 -2.0795
  190SAPI   H8Y21935   5.071   2.608   6.164 -0.7318 -0.5355 -0.8921
  190SAPI   C3921936   5.077   2.461   6.020 -1.0576  1.3233  0.1543
  190SAPI   H9X21937   4.968   2.479   6.004 -0.7929  1.0706 -2.2246
  190SAPI   H9Y21938   5.090   2.351   6.020 -0.9304  1.2992  2.1057
  190SAPI  C31021939   5.168   2.515   5.907 -0.0360  0.1904  0.1767
  190SAPI  H10X21940   5.264   2.461   5.920 -0.2237 -0.3693 -0.6192
  190SAPI  H10Y21941   5.179   2.625   5.918 -1.7458  0.3250  0.8501
  190SAPI  C31121942   5.109   2.488   5.772  0.8036  0.2615  0.2296
  190SAPI  H11X21943   5.014   2.545   5.770  0.0620 -0.9529 -1.0829
  190SAPI  H11Y21944   5.084   2.381   5.753  0.3524  0.6204 -1.2736
  190SAPI  C31221945   5.198   2.543   5.659 -0.4340 -0.0697 -0.2115
  190SAPI  H12X21946   5.271   2.614   5.703  0.2571 -0.6788 -0.3625
  190SAPI  H12Y21947   5.146   2.596   5.576  3.0547  1.4414 -1.6380
  190SAPI  C31321948   5.285   2.436   5.580  0.4102  0.4115 -0.0640
  190SAPI  H13X21949   5.342   2.379   5.657  0.6533  2.1687  1.1233
  190SAPI  H13Y21950   5.355   2.482   5.506  0.4941 -1.3635 -1.1500
  190SAPI  C31421951   5.196   2.348   5.494 -0.2925 -0.2715  0.0189
  190SAPI  H14X21952   5.140   2.412   5.422  0.4017  1.2549  0.7937
  190SAPI  H14Y21953   5.130   2.298   5.568 -0.6731  0.0014 -0.1269
  190SAPI  C31521954   5.279   2.245   5.409  0.5219  0.0675 -0.2749
  190SAPI  H15X21955   5.321   2.174   5.483 -0.6034  0.4902  0.7952
  190SAPI  H15Y21956   5.352   2.292   5.340 -0.8857 -1.8723 -3.3374
  190SAPI  C31621957   5.182   2.151   5.335  0.2517  0.0552  0.5598
  190SAPI  H16X21958   5.246   2.090   5.268  1.4483 -0.2886  1.9644
  190SAPI  H16Y21959   5.116   2.203   5.262  1.7561  2.2518  0.6735
  190SAPI  C31721960   5.086   2.063   5.414 -0.2592  0.2734  1.1525
  190SAPI  H17X21961   5.001   2.122   5.453 -3.1159 -1.7478 -1.5411
  190SAPI  H17Y21962   5.139   2.019   5.501 -0.2714  1.1133  1.5887
  190SAPI  C31821963   5.010   1.959   5.332 -0.0388  0.0654 -0.6116
  190SAPI  H18X21964   5.060   1.859   5.338  0.4352  0.2277 -1.5937
  190SAPI  H18Y21965   4.998   2.003   5.231  2.4435  0.5325 -0.7788
  190SAPI  H18Z21966   4.908   1.950   5.373  0.4787  0.4952  0.8445
  191SAPI   C1221967   2.022   0.756   2.719 -0.0240  0.0685  0.9816
  191SAPI    H221968   2.087   0.703   2.792 -0.7387  0.7387  2.1380
  191SAPI    O221969   2.099   0.816   2.619 -0.2026  0.4244  0.9011
  191SAPI   HO221970   2.190   0.821   2.651  0.4675  1.8651 -1.0888
  191SAPI   C1321971   1.928   0.652   2.652 -0.0147 -0.4724  0.5984
  191SAPI    H321972   1.864   0.612   2.734 -0.5249  1.1430  1.0200
  191SAPI    O321973   2.005   0.544   2.596  0.3686 -0.2899  0.0359
  191SAPI   HO321974   1.984   0.467   2.649 -0.0979 -0.0706  0.1723
  191SAPI   C1421975   1.830   0.722   2.552 -1.0314  0.1935  0.1313
  191SAPI    H421976   1.897   0.772   2.479 -2.1138 -2.9619 -3.3614
  191SAPI    O421977   1.758   0.619   2.478 -0.6520 -0.3246  0.3983
  191SAPI   HO421978   1.682   0.651   2.429 -0.3561  0.6608  0.5572
  191SAPI   C1521979   1.747   0.826   2.609  0.3053  0.1510 -0.0707
  191SAPI    H521980   1.673   0.767   2.667  3.2930 -2.6995  1.1606
  191SAPI    O521981   1.672   0.895   2.504 -0.4050 -0.2279  0.5351
  191SAPI   HO521982   1.613   0.840   2.452  0.8720  0.7763 -2.1765
  191SAPI   C1621983   1.824   0.920   2.708 -0.2061  0.9931 -0.7883
  191SAPI    H621984   1.866   0.994   2.637 -2.1117  0.8752 -2.0978
  191SAPI    O621985   1.736   0.984   2.799  0.1233 -0.1719 -0.0500
  191SAPI   HO621986   1.690   0.915   2.847  0.7962 -1.1031 -0.7069
  191SAPI   C1121987   1.948   0.871   2.782 -0.5671  0.0899 -0.3117
  191SAPI    H121988   1.908   0.824   2.874  1.4723 -2.1871 -0.4774
  191SAPI     P21989   2.141   0.985   2.935 -0.2103 -0.0716 -0.0393
  191SAPI   O1321990   2.241   1.092   2.902  0.0341 -0.4852  0.3800
  191SAPI   O1421991   2.184   0.855   2.973 -0.1884 -0.5986 -0.7495
  191SAPI   O1221992   2.035   0.981   2.809  0.0271  0.1889 -0.3380
  191SAPI   O1121993   2.039   1.037   3.042  0.1661 -0.3489  0.6906
  191SAPI    C121994   2.089   1.144   3.129 -0.4607  0.3341  0.5692
  191SAPI    HA21995   2.157   1.213   3.075 -2.1180  0.7021 -1.1272
  191SAPI    HB21996   2.003   1.209   3.155  0.3439  0.8791  1.9675
  191SAPI    C221997   2.155   1.102   3.261  0.8706 -0.1077  1.4309
  191SAPI    HS21998   2.141   1.192   3.324  1.8968  0.6196  0.6505
  191SAPI   O2121999   2.299   1.095   3.249  0.1223  1.0613  0.1712
  191SAPI   C2122000   2.375   1.140   3.349  0.8584  0.8653 -0.1654
  191SAPI   O2222001   2.337   1.200   3.447 -0.0635  0.5338 -0.2596
  191SAPI   C2222002   2.516   1.106   3.317  0.1000 -1.0333  0.0551
  191SAPI   H2R22003   2.519   1.013   3.256 -1.3472 -1.1149  0.0744
  191SAPI   H2S22004   2.562   1.189   3.259  0.3328  0.4051  2.2091
  191SAPI    C322005   2.089   0.985   3.329  0.5978  0.3019  0.6906
  191SAPI    HX22006   2.091   0.895   3.265  3.2545 -0.2502  1.4408
  191SAPI    HY22007   1.981   1.011   3.338  0.4060  0.6908 -1.9610
  191SAPI   O3122008   2.145   0.948   3.459  0.1660  0.5741  0.2993
  191SAPI   C3122009   2.095   1.026   3.554  0.2465  0.3474 -0.2763
  191SAPI   O3222010   2.013   1.114   3.548 -0.5561 -0.1695  0.7049
  191SAPI   C3222011   2.148   0.969   3.688 -0.3610 -0.1395  1.1592
  191SAPI   H2X22012   2.255   0.998   3.686 -0.3286 -0.2550 -0.6754
  191SAPI   H2Y22013   2.137   0.858   3.686  3.6328 -0.6677  0.5149
  191SAPI   C2322014   2.592   1.071   3.445  0.2860  0.0363 -0.1430
  191SAPI   H3R22015   2.562   1.148   3.520  0.3922  0.9417 -1.0113
  191SAPI   H3S22016   2.700   1.083   3.425  0.5012 -0.2214  0.8038
  191SAPI   C2422017   2.558   0.928   3.495 -0.2883  0.1325 -0.2630
  191SAPI   H4R22018   2.577   0.848   3.421 -1.1192 -0.9784  0.6887
  191SAPI   H4S22019   2.453   0.916   3.528 -0.4588  0.6658 -0.5980
  191SAPI   C2522020   2.667   0.900   3.601  0.2400 -0.9289  0.0738
  191SAPI   H5R22021   2.758   0.851   3.562 -0.5556 -1.9455 -0.5606
  191SAPI   C2622022   2.658   0.932   3.730  0.1300  0.7168 -0.4810
  191SAPI   H6R22023   2.737   0.901   3.801 -1.4635 -1.3594  0.4925
  191SAPI   C2722024   2.549   1.004   3.805 -0.0976 -0.7396  0.5873
  191SAPI   H7R22025   2.457   0.994   3.743  0.9110  0.6662 -1.2451
  191SAPI   H7S22026   2.578   1.111   3.807  3.1631 -1.5252  0.0563
  191SAPI   C2822027   2.516   0.948   3.941  0.0623 -0.1805 -0.2814
  191SAPI   H8R22028   2.528   0.843   3.970  1.8780 -0.6042 -2.3036
  191SAPI   C2922029   2.468   1.024   4.044 -0.1465  0.4255 -0.0443
  191SAPI   H9R22030   2.470   0.972   4.142 -0.7241 -1.6902 -1.0855
  191SAPI  C21022031   2.445   1.169   4.054  0.5793  0.5059  0.2145
  191SAPI  H10R22032   2.426   1.219   3.957 -0.7373 -0.5155 -0.0856
  191SAPI  H10S22033   2.541   1.214   4.088  0.2600  1.8617 -0.5905
  191SAPI  C21122034   2.331   1.203   4.151  0.3477  0.4294 -0.0437
  191SAPI  H11R22035   2.235   1.233   4.105 -1.1531  0.0118  2.6097
  191SAPI  C21222036   2.340   1.217   4.288  0.4247  0.3910  1.0180
  191SAPI  H12R22037   2.247   1.251   4.337 -0.0141 -2.3383  2.2600
  191SAPI  C21322038   2.466   1.205   4.367 -0.0013 -0.1480  0.2235
  191SAPI  H13R22039   2.446   1.255   4.464 -2.8327  0.1709 -0.4452
  191SAPI  H13S22040   2.553   1.253   4.317 -0.5061  0.3284 -0.2048
  191SAPI  C21422041   2.503   1.058   4.400  0.6621 -0.2520  0.3547
  191SAPI  H14R22042   2.601   1.030   4.358 -0.0965  0.8958 -2.3891
  191SAPI  C21522043   2.434   0.967   4.464 -0.2865  0.3467  0.3554
  191SAPI  H15R22044   2.481   0.870   4.485  0.2243  0.5946  0.3736
  191SAPI  C21622045   2.299   0.994   4.518 -0.3370 -0.3172  0.5327
  191SAPI  H16R22046   2.231   0.970   4.433  1.0995  0.9294 -1.0528
  191SAPI  H16S22047   2.279   1.101   4.542 -1.2228 -0.5139  0.6976
  191SAPI  C21722048   2.257   0.920   4.652 -0.3259  0.2504  0.3851
  191SAPI  H17R22049   2.262   0.810   4.634 -0.7919  0.5867 -2.1377
  191SAPI  H17S22050   2.148   0.939   4.662 -0.0616  1.3176  1.4277
  191SAPI  C21822051   2.345   0.953   4.779  1.0805  0.1362 -0.5049
  191SAPI  H18R22052   2.415   1.037   4.760 -0.2723  1.2544 -0.7631
  191SAPI  H18S22053   2.400   0.865   4.818 -2.6591 -1.8775  0.7834
  191SAPI  C21922054   2.247   0.984   4.893  0.0900 -0.1071  0.2372
  191SAPI  H19R22055   2.180   0.898   4.915 -0.4779 -0.3355 -2.0897
  191SAPI  H19S22056   2.179   1.065   4.858  0.5520  0.7359  1.2273
  191SAPI  C22022057   2.324   1.025   5.020  0.7159 -0.0246  0.4419
  191SAPI  H20R22058   2.424   0.976   5.025  1.5698  1.7443  2.1672
  191SAPI  H20S22059   2.270   0.992   5.111 -1.0470 -1.9078 -1.1902
  191SAPI  H20T22060   2.346   1.134   5.021  2.0164 -0.2456 -0.6647
  191SAPI   C3322061   2.063   1.022   3.805 -0.5515 -0.9566 -0.2963
  191SAPI   H3X22062   1.954   1.024   3.783 -0.4451  1.4002 -0.9445
  191SAPI   H3Y22063   2.095   1.127   3.825  1.7330 -1.6649  0.0212
  191SAPI   C3422064   2.076   0.928   3.933 -0.7477 -0.3544 -0.0112
  191SAPI   H4X22065   2.181   0.900   3.956 -0.8046 -1.9991 -1.4810
  191SAPI   H4Y22066   2.043   0.822   3.922  1.8099 -1.2925  0.4478
  191SAPI   C3522067   2.005   0.991   4.050 -0.1356 -1.0442  0.0836
  191SAPI   H5X22068   1.903   1.027   4.025 -0.0848  1.0480  2.4820
  191SAPI   H5Y22069   2.059   1.086   4.074  2.7466 -2.0772 -1.7645
  191SAPI   C3622070   2.008   0.887   4.163 -0.1907 -0.3751 -0.2352
  191SAPI   H6X22071   2.114   0.877   4.193 -0.8961 -1.1284  2.2181
  191SAPI   H6Y22072   1.960   0.794   4.125 -1.3204 -0.0364  0.2964
  191SAPI   C3722073   1.930   0.928   4.286 -0.0739 -0.0356 -0.0522
  191SAPI   H7X22074   1.825   0.944   4.253  0.8661  2.6039 -2.1619
  191SAPI   H7Y22075   1.952   1.032   4.317 -0.4973  0.2741 -0.7493
  191SAPI   C3822076   1.944   0.823   4.398 -0.1716 -0.6369 -0.5419
  191SAPI   H8X22077   2.047   0.820   4.440  0.0019 -0.6715 -0.9638
  191SAPI   H8Y22078   1.917   0.723   4.357  0.0941  0.0462 -2.4590
  191SAPI   C3922079   1.862   0.862   4.517  0.1608  0.1596 -0.0178
  191SAPI   H9X22080   1.757   0.854   4.483  0.9141  0.0146 -2.4955
  191SAPI   H9Y22081   1.888   0.967   4.544  0.4137 -0.0537  0.5843
  191SAPI  C31022082   1.875   0.771   4.643 -0.3089  0.1732 -0.1112
  191SAPI  H10X22083   1.984   0.755   4.658 -0.6355 -0.3240  1.9229
  191SAPI  H10Y22084   1.832   0.672   4.616 -0.2850 -0.3855  1.7925
  191SAPI  C31122085   1.804   0.828   4.759 -0.2011  0.0958 -0.0815
  191SAPI  H11X22086   1.693   0.837   4.747 -0.2474  0.1499  0.3596
  191SAPI  H11Y22087   1.835   0.931   4.788 -0.3794 -0.5119  2.5244
  191SAPI  C31222088   1.832   0.753   4.889 -0.2030  1.4629  0.0197
  191SAPI  H12X22089   1.938   0.759   4.921  0.2216 -0.2133 -0.9305
  191SAPI  H12Y22090   1.809   0.647   4.864  1.5797  0.7930  1.1071
  191SAPI  C31322091   1.743   0.797   5.007  0.5803 -0.7247 -0.0359
  191SAPI  H13X22092   1.635   0.787   4.982  0.5985 -0.6431 -0.1492
  191SAPI  H13Y22093   1.742   0.908   5.000 -3.6752 -0.7095 -1.9253
  191SAPI  C31422094   1.770   0.748   5.152  0.3069 -0.2631  0.3424
  191SAPI  H14X22095   1.770   0.637   5.151  0.1289 -0.2602 -0.1728
  191SAPI  H14Y22096   1.687   0.785   5.216 -0.7475  0.6735 -1.5048
  191SAPI  C31522097   1.900   0.804   5.215  0.7129  0.1857 -0.4988
  191SAPI  H15X22098   1.882   0.912   5.199 -0.3799  0.1468  0.3611
  191SAPI  H15Y22099   1.990   0.771   5.159  0.4278 -0.3748 -0.6293
  191SAPI  C31622100   1.922   0.757   5.369 -0.2330  1.1694  0.1916
  191SAPI  H16X22101   1.920   0.646   5.371  2.2614  1.0680 -0.5578
  191SAPI  H16Y22102   1.842   0.809   5.426  0.3338  0.2700  1.8901
  191SAPI  C31722103   2.055   0.821   5.402 -0.0934 -0.1956  0.0497
  191SAPI  H17X22104   2.062   0.832   5.513  0.8252  0.8719 -0.0921
  191SAPI  H17Y22105   2.058   0.922   5.357  0.4550  0.0961  0.7202
  191SAPI  C31822106   2.190   0.750   5.360  0.4743  0.4881  0.1128
  191SAPI  H18X22107   2.224   0.657   5.410  0.3676 -0.5756 -1.7006
  191SAPI  H18Y22108   2.268   0.827   5.380  1.1049 -0.3044  0.7738
  191SAPI  H18Z22109   2.183   0.719   5.254  1.5215 -0.9606  0.4337
  192SAPI   C1222110   4.118   5.059   2.988  0.3969  0.1753  0.2622
  192SAPI    H222111   4.057   5.152   2.985 -0.4396 -0.3773 -1.9034
  192SAPI    O222112   4.032   4.956   2.938 -0.5407  0.3214 -0.6200
  192SAPI   HO222113   3.950   4.996   2.908  0.1135  0.1386 -2.7952
  192SAPI   C1322114   4.246   5.073   2.902 -0.2216 -0.7217  0.4444
  192SAPI    H322115   4.300   5.160   2.945  0.2498  0.1005 -1.6825
  192SAPI    O322116   4.212   5.107   2.770 -0.1603 -0.5951 -0.2413
  192SAPI   HO322117   4.173   5.194   2.772  2.7817  0.8996 -1.9726
  192SAPI   C1422118   4.325   4.946   2.914 -0.1585 -0.1058 -0.2678
  192SAPI    H422119   4.257   4.871   2.870 -0.4079 -0.0636  0.0386
  192SAPI    O422120   4.447   4.959   2.842 -0.1317 -1.1403 -0.2320
  192SAPI   HO422121   4.440   4.881   2.785 -0.0986 -2.4788  1.4936
  192SAPI   C1522122   4.346   4.899   3.055  0.1956  0.1942  0.3077
  192SAPI    H522123   4.419   4.968   3.100  1.3359 -1.0852  0.4814
  192SAPI    O522124   4.392   4.765   3.052 -0.4534 -0.0713 -0.0131
  192SAPI   HO522125   4.488   4.770   3.053 -0.4828  1.1434 -0.8998
  192SAPI   C1622126   4.220   4.915   3.149  0.1246 -0.2576 -0.3499
  192SAPI    H622127   4.153   4.832   3.118  3.8803 -3.2555 -1.3022
  192SAPI    O622128   4.259   4.894   3.284  0.0086  0.2949 -0.3537
  192SAPI   HO622129   4.304   4.975   3.309  0.0600  0.2240 -0.2158
  192SAPI   C1122130   4.143   5.044   3.136  0.9496  0.4592 -0.7986
  192SAPI    H122131   4.206   5.131   3.165  0.1854  0.3777  1.2639
  192SAPI     P22132   3.906   5.148   3.260 -0.3345  0.5394 -0.0524
  192SAPI   O1322133   3.764   5.114   3.219  0.1250  0.5533  0.0461
  192SAPI   O1422134   3.953   5.276   3.213  0.1941 -0.0457  0.1590
  192SAPI   O1222135   4.014   5.030   3.207  0.2158  0.1458  0.5354
  192SAPI   O1122136   3.925   5.137   3.418 -0.1891 -0.1265  0.0631
  192SAPI    C122137   4.051   5.094   3.480  0.5536  0.1338 -0.1910
  192SAPI    HA22138   4.052   4.984   3.496 -1.5059  0.3218  1.7239
  192SAPI    HB22139   4.140   5.115   3.416 -2.0654  1.2034 -3.8325
  192SAPI    C222140   4.075   5.158   3.621 -0.5976 -0.0132 -0.2730
  192SAPI    HS22141   4.147   5.110   3.691  0.7843  1.4084 -0.6571
  192SAPI   O2122142   3.940   5.146   3.688 -0.0578  0.3457  0.4981
  192SAPI   C2122143   3.912   5.026   3.732  0.8194 -0.3481 -0.2094
  192SAPI   O2222144   3.980   4.927   3.733 -0.0818 -0.0023 -0.2364
  192SAPI   C2222145   3.776   5.038   3.796 -0.4678  0.8310  0.1607
  192SAPI   H2R22146   3.744   5.141   3.821 -0.9797  0.7300 -0.0620
  192SAPI   H2S22147   3.697   5.014   3.722 -0.8450 -1.1356  1.1231
  192SAPI    C322148   4.121   5.302   3.610 -0.5184 -0.3337  0.6314
  192SAPI    HX22149   4.047   5.355   3.547 -0.0287 -1.0845 -0.6163
  192SAPI    HY22150   4.205   5.308   3.538 -1.4944  2.1825 -0.4232
  192SAPI   O3122151   4.143   5.373   3.734 -0.3860 -0.4226  0.6501
  192SAPI   C3122152   4.053   5.464   3.776  0.0164 -1.0024 -0.4873
  192SAPI   O3222153   3.953   5.499   3.715 -0.3458 -0.1945  0.0820
  192SAPI   C3222154   4.102   5.528   3.907 -0.2766  0.3172  0.8229
  192SAPI   H2X22155   4.159   5.622   3.890  2.4282 -1.1506  1.2840
  192SAPI   H2Y22156   4.172   5.465   3.965  0.8710  0.2215 -0.6046
  192SAPI   C2322157   3.750   4.947   3.920 -1.0122  0.7916 -0.6199
  192SAPI   H3R22158   3.838   4.946   3.988 -2.3150  1.3895  1.1407
  192SAPI   H3S22159   3.735   4.842   3.886 -2.2426  1.1444 -1.2230
  192SAPI   C2422160   3.633   4.999   4.002 -0.3410  0.9035  0.3320
  192SAPI   H4R22161   3.660   5.104   4.022  3.2554 -0.0964  1.5224
  192SAPI   H4S22162   3.649   4.952   4.102  1.7713 -2.2137 -1.2854
  192SAPI   C2522163   3.501   4.981   3.932 -1.0327  0.1184  0.5523
  192SAPI   H5R22164   3.492   4.998   3.823 -1.4662 -1.4781  0.3041
  192SAPI   C2622165   3.384   4.990   3.991 -0.3638 -0.6562 -0.1252
  192SAPI   H6R22166   3.298   4.979   3.925 -0.0667 -2.0865 -0.2999
  192SAPI   C2722167   3.360   4.990   4.140 -0.9126 -0.2761 -0.5033
  192SAPI   H7R22168   3.450   4.957   4.195 -0.9962  0.9676  0.4099
  192SAPI   H7S22169   3.291   4.905   4.164 -0.3983 -0.9988 -1.5059
  192SAPI   C2822170   3.310   5.119   4.198  0.1845  0.8017  0.2853
  192SAPI   H8R22171   3.284   5.199   4.127 -0.8887 -0.4209 -0.7754
  192SAPI   C2922172   3.303   5.139   4.336 -0.3340 -0.7020  0.5540
  192SAPI   H9R22173   3.259   5.234   4.370  1.0756  0.7807 -1.4973
  192SAPI  C21022174   3.317   5.040   4.449 -0.2266  1.0296  0.4257
  192SAPI  H10R22175   3.424   5.013   4.463 -0.6857 -0.6537  0.9990
  192SAPI  H10S22176   3.270   4.946   4.414 -1.3363  2.5057 -2.3528
  192SAPI  C21122177   3.265   5.080   4.584  0.3126 -0.5959  0.4716
  192SAPI  H11R22178   3.159   5.107   4.575  0.4710 -0.1231  0.0126
  192SAPI  C21222179   3.326   5.077   4.708 -0.0929 -0.4086  0.2557
  192SAPI  H12R22180   3.275   5.121   4.795 -2.7193  1.3269 -1.9845
  192SAPI  C21322181   3.462   5.021   4.736 -0.5677 -0.2144 -0.8583
  192SAPI  H13R22182   3.517   5.096   4.797  1.1329 -1.9789 -0.1089
  192SAPI  H13S22183   3.523   4.997   4.646 -0.3585 -0.0373 -0.7635
  192SAPI  C21422184   3.447   4.886   4.802 -0.0405  0.3193  0.1001
  192SAPI  H14R22185   3.368   4.825   4.757 -0.4348  0.9696 -0.0956
  192SAPI  C21522186   3.501   4.836   4.913  0.3299 -0.6405 -0.1398
  192SAPI  H15R22187   3.483   4.732   4.944  2.8613 -0.8125  0.9826
  192SAPI  C21622188   3.611   4.904   4.986 -0.6132 -0.0572 -0.3017
  192SAPI  H16R22189   3.574   4.906   5.091 -1.2731  2.8592 -0.4985
  192SAPI  H16S22190   3.632   5.011   4.964  0.6565  0.1353  1.5536
  192SAPI  C21722191   3.731   4.806   4.967  0.7305 -0.2700  0.4210
  192SAPI  H17R22192   3.714   4.709   5.019 -0.8712 -0.0661  0.3331
  192SAPI  H17S22193   3.815   4.853   5.023  0.7719  1.1531 -0.7783
  192SAPI  C21822194   3.776   4.794   4.816  0.3519  0.3846 -0.5115
  192SAPI  H18R22195   3.802   4.897   4.781  0.6418  1.3079  2.1878
  192SAPI  H18S22196   3.689   4.755   4.760  0.1832 -2.4573  1.5529
  192SAPI  C21922197   3.896   4.703   4.792  0.3026  0.2975  0.4168
  192SAPI  H19R22198   3.893   4.667   4.686 -3.2208  1.3991  0.0086
  192SAPI  H19S22199   3.873   4.609   4.846 -0.1467  0.3938  0.3920
  192SAPI  C22022200   4.036   4.768   4.839  0.1416 -0.1475 -0.3306
  192SAPI  H20R22201   4.044   4.776   4.949  0.7979 -3.2817 -0.0366
  192SAPI  H20S22202   4.055   4.867   4.792 -0.5249  0.5424  0.8333
  192SAPI  H20T22203   4.116   4.694   4.814  0.9065 -0.0442  1.6647
  192SAPI   C3322204   3.987   5.552   4.005 -0.1147 -0.0430 -0.9331
  192SAPI   H3X22205   3.938   5.453   4.012  0.6504 -0.3333  1.0620
  192SAPI   H3Y22206   3.919   5.631   3.968  1.3485  1.4929 -0.4744
  192SAPI   C3422207   4.034   5.595   4.148  0.0059 -0.1217 -0.3502
  192SAPI   H4X22208   4.090   5.690   4.135 -1.1934  0.3965 -2.0923
  192SAPI   H4Y22209   4.103   5.515   4.184  0.5169  1.2583  1.8955
  192SAPI   C3522210   3.911   5.613   4.239 -0.4379 -0.3504 -0.2753
  192SAPI   H5X22211   3.855   5.517   4.242 -0.6648 -0.2118  2.4136
  192SAPI   H5Y22212   3.844   5.691   4.197 -2.2121 -1.9086 -0.5203
  192SAPI   C3622213   3.950   5.652   4.381  1.0150 -0.1597 -0.7100
  192SAPI   H6X22214   3.998   5.559   4.418  0.4414 -0.1677  0.0357
  192SAPI   H6Y22215   3.858   5.667   4.441  0.0279  0.5094 -2.3237
  192SAPI   C3722216   4.029   5.777   4.397 -0.3268  1.1209 -0.1007
  192SAPI   H7X22217   3.983   5.862   4.342 -1.7393 -0.2962 -1.2175
  192SAPI   H7Y22218   4.130   5.754   4.355 -1.1014  1.5892 -2.3902
  192SAPI   C3822219   4.037   5.820   4.549  0.0475 -0.0061  0.4507
  192SAPI   H8X22220   3.935   5.829   4.593  0.0895  2.9963  0.1725
  192SAPI   H8Y22221   4.081   5.922   4.557 -1.3822  0.7830 -1.1721
  192SAPI   C3922222   4.123   5.726   4.636  0.5000  0.4144 -0.0183
  192SAPI   H9X22223   4.219   5.705   4.583 -0.3975 -0.2573 -1.4229
  192SAPI   H9Y22224   4.079   5.626   4.654 -0.9621  1.2603  1.3485
  192SAPI  C31022225   4.145   5.788   4.771 -0.0648 -0.3762 -0.3080
  192SAPI  H10X22226   4.051   5.772   4.828 -1.9382  1.0559 -2.8078
  192SAPI  H10Y22227   4.162   5.896   4.752  3.9957 -0.9960 -1.1935
  192SAPI  C31122228   4.268   5.727   4.838  0.4287 -0.3121  0.8288
  192SAPI  H11X22229   4.360   5.743   4.777 -1.1646  2.0602 -1.1576
  192SAPI  H11Y22230   4.258   5.617   4.850 -0.2395 -0.8412 -3.1797
  192SAPI  C31222231   4.274   5.801   4.973  0.3215 -0.0318  0.3210
  192SAPI  H12X22232   4.175   5.821   5.020 -0.8805 -2.0280 -1.1737
  192SAPI  H12Y22233   4.300   5.907   4.957 -1.5333  0.8102  2.3765
  192SAPI  C31322234   4.371   5.739   5.078  0.2334  0.5707  0.0551
  192SAPI  H13X22235   4.472   5.752   5.034  0.2341  2.4254  0.5012
  192SAPI  H13Y22236   4.350   5.631   5.095  0.2560  0.6194  0.3991
  192SAPI  C31422237   4.382   5.811   5.214 -0.0728  0.0921 -0.1269
  192SAPI  H14X22238   4.381   5.922   5.212  1.2257  0.2977  3.4000
  192SAPI  H14Y22239   4.484   5.788   5.252  0.6460  1.9434 -0.8244
  192SAPI  C31522240   4.286   5.745   5.316 -0.4894  0.5761  0.0376
  192SAPI  H15X22241   4.306   5.636   5.303 -1.6586  0.6294 -3.2681
  192SAPI  H15Y22242   4.190   5.773   5.269  0.4970  4.0929 -0.1362
  192SAPI  C31622243   4.282   5.802   5.466 -0.2458 -0.3738 -0.9512
  192SAPI  H16X22244   4.201   5.746   5.518 -1.6777  3.1120  0.9026
  192SAPI  H16Y22245   4.267   5.912   5.469  0.3510 -0.3008 -0.4462
  192SAPI  C31722246   4.419   5.767   5.534  0.1977  0.0048 -0.6417
  192SAPI  H17X22247   4.498   5.820   5.475 -1.5378  1.1120 -2.0669
  192SAPI  H17Y22248   4.441   5.658   5.533  1.1700  0.1682  0.4772
  192SAPI  C31822249   4.440   5.814   5.677  0.2720  0.0463  0.3462
  192SAPI  H18X22250   4.401   5.917   5.686  0.6298  0.1195  1.0987
  192SAPI  H18Y22251   4.547   5.810   5.705  0.5116  2.2258 -0.0903
  192SAPI  H18Z22252   4.388   5.739   5.741 -1.1855 -0.4863 -1.3656
  193SOD    SOD22253   5.781   1.540   1.392 -0.3154 -0.2679  0.2459
  194SOD    SOD22254   2.151   0.612   2.372 -0.3289 -0.3258 -0.0961
  195SOD    SOD22255   2.079   4.575   8.192  0.2108 -0.0488 -0.0585
  196SOD    SOD22256   2.144   0.530   0.514  0.2646 -0.4784  0.0198
  197SOD    SOD22257   1.920   2.368   1.117  0.0724  0.1850  0.0022
  198SOD    SOD22258   1.307   5.813   1.231 -0.0328 -0.0133 -0.3663
  199SOD    SOD22259   2.137   3.914   2.276 -0.5727  0.5334 -0.5092
  200SOD    SOD22260   5.683   1.694   8.683  0.4665  0.0872 -0.2919
  201SOD    SOD22261   6.239   1.030   3.062  0.2931  0.1260  0.0668
  202SOD    SOD22262   0.764   0.463   7.397 -0.0219  0.5243  0.2072
  203SOD    SOD22263   1.341   4.946   0.601 -0.1245 -0.0862 -0.4439
  204SOD    SOD22264   5.512   2.974   7.904 -0.0028  0.1966 -0.7831
  205SOD    SOD22265   1.765   1.145   1.392  0.2812 -0.3613  0.0760
  206SOD    SOD22266   1.779   1.711   2.205 -0.2656 -0.5038 -0.3900
  207SOD    SOD22267   0.180   0.647   0.514  0.6629 -0.3179 -0.1350
  208SOD    SOD22268   6.549   5.235   0.805 -0.0215  0.4385  0.7096
  209SOD    SOD22269   1.119   2.244   0.450 -0.0196 -0.0755 -0.7459
  210SOD    SOD22270   5.295   1.860   2.751  0.5951  0.3116 -0.1627
  211SOD    SOD22271   0.387   6.580   7.771  0.0255  0.0175  0.0113
  212SOD    SOD22272   3.331   0.407   8.175 -0.0949 -0.3097 -0.1151
  213SOD    SOD22273   4.934   5.883   1.836  0.1256  0.0022 -0.3032
  214SOD    SOD22274   6.592   5.802   8.276 -0.2928  0.5310 -0.2892
  215SOD    SOD22275   0.628   3.318   2.382  0.4442  0.3395 -0.1139
  216SOD    SOD22276   6.260   5.359   7.876 -0.2993  0.2754 -0.1589
  217SOD    SOD22277   6.607   5.272   0.323  0.4119 -0.1504  0.3914
  218SOD    SOD22278   2.914   6.207   1.132  0.1381  0.7462  0.2572
  219SOD    SOD22279   5.784   0.800   8.208 -0.2714  0.4494  0.3539
  220SOD    SOD22280   5.233   6.549   8.294 -0.2098  0.0586 -0.5001
  221SOD    SOD22281   2.140   4.020   7.722  0.2916  0.4927  0.0844
  222SOD    SOD22282   4.570   3.860   1.489  0.2614  0.2007 -0.2513
  223SOD    SOD22283   2.854   4.870   1.402 -0.2114  0.2693 -0.0069
  224SOD    SOD22284   1.152   2.874   3.385 -0.0023  0.3010 -0.1767
  225SOD    SOD22285   0.315   4.727   2.519 -0.1036  0.0650 -0.7461
  226SOD    SOD22286   5.333   0.468   2.530 -0.5135 -0.2144 -0.1222
  227SOD    SOD22287   3.099   1.518   8.595 -0.0887  0.2104  0.0917
  228SOD    SOD22288   2.176   0.038   8.295 -0.3026 -0.0060  0.8564
  229SOD    SOD22289   1.247   3.724   2.865 -0.2661 -0.0627  0.0991
  230SOD    SOD22290   5.521   2.525   2.056 -0.4155  0.3926  0.3088
  231SOD    SOD22291   3.382   1.519   3.089 -0.2441  0.2172  0.6023
  232SOD    SOD22292   4.020   3.420   1.448  0.6701 -0.2658 -0.1057
  233SOD    SOD22293   3.450   4.630   7.892  0.2633  0.2973  0.0615
  234CLA    CLA22294   0.176   4.714   8.720 -0.0955 -0.3093  0.3676
  235CLA    CLA22295   2.230   2.062   1.392 -0.0222 -0.1554 -0.6040
  236CLA    CLA22296   3.060   5.710   2.262 -0.1853  0.3241 -0.0043
  237CLA    CLA22297   5.387   5.031   0.226 -0.2403  0.3997 -0.1642
  238CLA    CLA22298   0.363   0.400   8.426 -0.2841 -0.0553  0.3036
  239CLA    CLA22299   6.209   1.438   1.171  0.1885  0.1603 -0.0117
  240CLA    CLA22300   4.464   4.533   1.517  0.0901  0.1035  0.1786
  241CLA    CLA22301   5.087   2.025   1.520 -0.1917 -0.4813  0.0913
  242CLA    CLA22302   1.111   4.821   8.263  0.3057 -0.0708  0.4577
  243CLA    CLA22303   2.246   0.626   1.051  0.3708  0.0721 -0.0465
  244CLA    CLA22304   0.671   4.223   2.089  0.2571  0.1573 -0.0086
  245CLA    CLA22305   5.891   0.447   0.315 -0.0037  0.1043 -0.3166
  246CLA    CLA22306   2.811   6.484   0.263 -0.2610  0.3483 -0.3847
  247CLA    CLA22307   1.642   5.884   0.905  0.2344  0.3237 -0.0112
  248CLA    CLA22308   4.469   2.238   0.116  0.2889 -0.0914 -0.0636
  249CLA    CLA22309   2.465   3.119   8.323  0.0600  0.5286  0.4678
  250CLA    CLA22310   5.497   2.567   1.792 -0.1325  0.2961  0.2734
  251TIP3   OH222311   2.302   6.622   8.296 -0.5348  0.4314 -0.2855
  251TIP3    H122312   2.350   6.561   8.352 -0.8365 -0.5077 -1.0205
  251TIP3    H222313   2.312   6.587   8.208  0.7988  2.4350 -1.0125
  252TIP3   OH222314   1.145   0.844   0.701 -0.1509  0.0881  0.6821
  252TIP3    H122315   1.215   0.833   0.766 -0.8981 -0.0031  1.4969
  252TIP3    H222316   1.183   0.810   0.620  0.1874 -1.5859  1.4784
  253TIP3   OH222317   2.038   2.134   8.478  0.5256 -0.5692 -0.7065
  253TIP3    H122318   2.131   2.117   8.491  0.4665 -0.6085 -0.3041
  253TIP3    H222319   1.999   2.047   8.469  0.1851 -0.7358  1.6230
  254TIP3   OH222320   0.704   5.204   0.719  0.1714 -0.2728 -0.5317
  254TIP3    H122321   0.641   5.132   0.711 -0.5371  0.0586  1.6321
  254TIP3    H222322   0.731   5.203   0.810  2.5828  0.2505 -1.1668
  255TIP3   OH222323   6.656   2.403   8.659  0.0336 -0.2166 -0.1147
  255TIP3    H122324   6.640   2.456   8.580  3.6347  0.5121 -0.5333
  255TIP3    H222325   6.622   2.457   8.731  0.1899  0.9065 -0.8536
  256TIP3   OH222326   4.517   1.533   8.452  0.2382  0.5930  0.2751
  256TIP3    H122327   4.505   1.444   8.417 -0.8205  0.0712  1.8539
  256TIP3    H222328   4.445   1.583   8.413 -0.2205  0.3049  0.7265
  257TIP3   OH222329   4.693   3.120   7.985  0.2264 -0.0502  0.3311
  257TIP3    H122330   4.785   3.136   7.966  0.0195  0.1173 -0.5899
  257TIP3    H222331   4.659   3.078   7.906 -0.5437  0.1037  0.5678
  258TIP3   OH222332   4.489   5.607   8.711  0.4153  0.2336  0.5970
  258TIP3    H122333   4.440   5.541   8.761 -0.9623  0.0816 -0.8564
  258TIP3    H222334   4.436   5.686   8.717  0.4542  0.3334 -0.2264
  259TIP3   OH222335   0.983   0.402   2.687 -0.0117 -0.1250 -0.8186
  259TIP3    H122336   1.000   0.313   2.716  0.0413 -0.1259 -0.8523
  259TIP3    H222337   1.049   0.418   2.619 -1.1534 -0.6953 -2.0988
  260TIP3   OH222338   1.047   1.011   0.067 -0.1958 -0.0776  0.0590
  260TIP3    H122339   1.025   0.925   0.033  1.8076 -0.7824  0.3690
  260TIP3    H222340   1.029   1.006   0.160 -0.5678  0.0253 -0.0054
  261TIP3   OH222341   6.155   6.515   8.268 -0.5327 -0.5832 -0.0585
  261TIP3    H122342   6.060   6.503   8.258 -0.6023  0.4513 -0.8972
  261TIP3    H222343   6.193   6.434   8.235 -0.9988  0.6917 -4.3497
  262TIP3   OH222344   6.652   5.558   0.987 -0.0144  1.0244 -0.0872
  262TIP3    H122345   6.627   5.596   1.071 -2.3824 -0.0555 -0.2208
  262TIP3    H222346   6.649   5.463   1.002  0.3420  0.8273 -1.1892
  263TIP3   OH222347   3.983   3.093   0.230  0.3463 -0.3201 -0.1629
  263TIP3    H122348   4.014   3.170   0.182  1.0030  0.0290  0.7873
  263TIP3    H222349   3.912   3.126   0.285  0.8002 -0.3256  0.4372
  264TIP3   OH222350   2.887   0.870   8.474 -0.1391  0.1757 -0.3711
  264TIP3    H122351   2.975   0.907   8.474  0.0112 -0.1707  0.1813
  264TIP3    H222352   2.846   0.906   8.395  0.8445 -0.4879 -1.2133
  265TIP3   OH222353   2.218   0.016   0.416 -0.2408  0.0756 -0.1006
  265TIP3    H122354   2.244  -0.058   0.361 -1.3370 -0.1570 -0.3300
  265TIP3    H222355   2.126  -0.000   0.436 -0.3340  1.0742  0.3426
  266TIP3   OH222356   5.990   4.440   0.384  0.2333  0.5570  0.1115
  266TIP3    H122357   5.897   4.417   0.397  0.8515 -1.1271  2.1675
  266TIP3    H222358   5.988   4.509   0.318 -2.5069  0.7533  0.2526
  267TIP3   OH222359   1.342   0.380   1.438 -0.1817 -0.4530 -0.3408
  267TIP3    H122360   1.411   0.418   1.385 -0.6750 -0.0173 -0.6830
  267TIP3    H222361   1.380   0.300   1.475  0.7622  0.1964  0.1197
  268TIP3   OH222362   4.850   1.584   1.248 -0.4059 -0.7193  0.1281
  268TIP3    H122363   4.824   1.676   1.261 -0.7589 -0.7125 -0.5689
  268TIP3    H222364   4.925   1.572   1.306  0.5019  0.4086 -0.7588
  269TIP3   OH222365   5.695   2.724   3.381  0.3332  0.0970  0.4039
  269TIP3    H122366   5.755   2.797   3.394 -0.8862  1.1311  0.4481
  269TIP3    H222367   5.622   2.761   3.331 -0.7160 -0.8495  1.1583
  270TIP3   OH222368   2.256   0.306   0.974  0.1127  0.2970 -0.2337
  270TIP3    H122369   2.329   0.270   0.923 -0.7083 -0.2177 -1.0868
  270TIP3    H222370   2.250   0.398   0.946  0.0248  0.1651 -0.6613
  271TIP3   OH222371   3.561   4.024   2.198  0.5735  0.4123  0.0524
  271TIP3    H122372   3.653   4.024   2.171  0.3992  2.5569 -0.7344
  271TIP3    H222373   3.558   4.083   2.273 -0.5682  2.8544 -1.7782
  272TIP3   OH222374   4.343   5.843   0.106  0.9259 -0.4975  0.0216
  272TIP3    H122375   4.430   5.834   0.145  1.3088 -0.1590 -0.7409
  272TIP3    H222376   4.358   5.837   0.012  0.5834  2.6936 -0.3440
  273TIP3   OH222377   0.909   3.456   0.953  0.4744  0.1277 -0.3716
  273TIP3    H122378   0.879   3.464   0.863  0.2587  0.6691 -0.2602
  273TIP3    H222379   0.841   3.405   0.997 -0.0039  0.8574 -0.2533
  274TIP3   OH222380   4.454   1.572   1.284 -0.1856  0.4904  0.2454
  274TIP3    H122381   4.515   1.501   1.264  0.2453  1.2706 -1.3206
  274TIP3    H222382   4.479   1.601   1.372  0.3215 -0.5840  0.4651
  275TIP3   OH222383   0.419   2.859   8.040  0.3509  0.2219  0.2425
  275TIP3    H122384   0.449   2.832   8.126 -1.1943 -1.2993  0.3584
  275TIP3    H222385   0.437   2.953   8.036  3.4518 -0.2493  0.9067
  276TIP3   OH222386   5.575   5.665   0.495 -0.1996  0.1122 -0.4508
  276TIP3    H122387   5.564   5.694   0.586  0.3439  2.9390 -1.1628
  276TIP3    H222388   5.504   5.603   0.480 -0.0679 -0.7400  1.9882
  277TIP3   OH222389   4.273   1.884   8.182  0.5393 -0.8047 -0.1446
  277TIP3    H122390   4.271   1.843   8.096 -1.5787 -1.9661  0.3874
  277TIP3    H222391   4.274   1.978   8.164  0.0518 -1.0254 -1.4539
  278TIP3   OH222392   3.813   0.373   0.725  0.1096  0.2583  0.2776
  278TIP3    H122393   3.853   0.290   0.753 -0.2130  0.7607  2.3581
  278TIP3    H222394   3.883   0.438   0.733  0.0020  0.4256 -0.1038
  279TIP3   OH222395   5.163   1.140   1.989 -0.2775  0.1764 -0.1211
  279TIP3    H122396   5.204   1.214   1.944 -1.0256  0.6950  0.0293
  279TIP3    H222397   5.079   1.174   2.020 -0.9370 -0.9259 -0.6375
  280TIP3   OH222398   1.536   6.185   2.490  0.6662 -0.7039  0.3273
  280TIP3    H122399   1.594   6.260   2.500  2.0164 -1.7048  0.2905
  280TIP3    H222400   1.552   6.131   2.567  0.3811 -1.3852 -0.0760
  281TIP3   OH222401   5.294   3.336   3.407 -0.0362  0.0839 -0.3796
  281TIP3    H122402   5.338   3.318   3.490  0.9518 -1.8296 -1.2277
  281TIP3    H222403   5.324   3.423   3.382  0.7619  0.1068  0.5985
  282TIP3   OH222404   0.392   5.407   8.236  0.1237 -0.1583 -0.0893
  282TIP3    H122405   0.410   5.495   8.266 -0.0009 -0.0860 -0.2240
  282TIP3    H222406   0.339   5.368   8.307  0.5686 -0.2799  0.1797
  283TIP3   OH222407   2.729   1.988   8.269  0.3165  0.3552 -0.2372
  283TIP3    H122408   2.761   2.006   8.181 -1.1926  2.5453 -0.4173
  283TIP3    H222409   2.739   2.071   8.316  0.1272 -0.4741  1.3530
  284TIP3   OH222410   4.840   3.030   8.779  0.0705  0.4268  0.0995
  284TIP3    H122411   4.915   3.088   8.794 -0.5381  0.8937  1.4964
  284TIP3    H222412   4.834   2.977   8.859 -0.0659 -0.8207 -0.6981
  285TIP3   OH222413   3.370   5.306   7.765  0.2431 -0.1003 -0.0219
  285TIP3    H122414   3.406   5.271   7.847 -2.4719 -0.4550  1.1235
  285TIP3    H222415   3.314   5.236   7.731 -1.8955  1.4694  0.0266
  286TIP3   OH222416   3.341   6.461   8.080  0.0581 -0.6527 -0.5190
  286TIP3    H122417   3.274   6.398   8.105 -0.2842 -0.2252 -0.3304
  286TIP3    H222418   3.402   6.413   8.024 -0.0192 -1.2272 -0.1115
  287TIP3   OH222419   0.621   0.516   8.324 -0.1365  0.0975  0.1954
  287TIP3    H122420   0.688   0.528   8.392  0.3730  1.1362 -0.4547
  287TIP3    H222421   0.549   0.471   8.368  0.0343  1.0791  1.5271
  288TIP3   OH222422   4.343   5.735   1.194 -0.5696 -0.2894  0.3292
  288TIP3    H122423   4.342   5.640   1.185 -1.3282 -0.2324 -0.2120
  288TIP3    H222424   4.253   5.760   1.211 -0.7040  0.4835 -1.2888
  289TIP3   OH222425   4.510   3.270   2.004 -0.2807 -0.7375  0.1199
  289TIP3    H122426   4.582   3.215   2.034 -1.8751 -3.2651 -0.4019
  289TIP3    H222427   4.491   3.327   2.078  0.4164 -1.9953  1.3135
  290TIP3   OH222428   0.212   0.132   8.836  0.1612 -0.2318  0.5668
  290TIP3    H122429   0.179   0.210   8.791  0.8540  0.5968  1.4362
  290TIP3    H222430   0.166   0.132   8.920  0.0966 -0.8170  0.5326
  291TIP3   OH222431   4.225   4.617   8.645  1.1404  0.5724 -0.2516
  291TIP3    H122432   4.225   4.682   8.575  0.8653  1.2233  0.3357
  291TIP3    H222433   4.135   4.619   8.680  1.1749  0.0006 -0.1090
  292TIP3   OH222434   0.381   2.655   1.579 -0.1108 -0.4325 -0.5319
  292TIP3    H122435   0.429   2.616   1.506 -0.1870 -0.5633 -0.5133
  292TIP3    H222436   0.447   2.669   1.646 -0.2646 -1.6199 -0.0923
  293TIP3   OH222437   4.256   1.584   7.948  0.2803 -0.2007  0.2996
  293TIP3    H122438   4.296   1.647   7.889 -0.2025 -0.9887 -0.9119
  293TIP3    H222439   4.162   1.602   7.944 -0.0611 -2.0214 -1.4016
  294TIP3   OH222440   1.111   1.935   7.646 -0.6123 -0.3330  0.2991
  294TIP3    H122441   1.165   1.857   7.642 -1.9614 -1.4627  2.2629
  294TIP3    H222442   1.172   2.006   7.663  0.7171 -0.7860 -2.1637
  295TIP3   OH222443   4.868   5.370   8.394  0.0289  0.3330 -0.3967
  295TIP3    H122444   4.888   5.356   8.486 -0.6385  0.3253 -0.2497
  295TIP3    H222445   4.953   5.366   8.350  0.1474 -1.9081 -0.0790
  296TIP3   OH222446   0.132   1.389   8.256 -0.1765 -0.3070 -0.0129
  296TIP3    H122447   0.154   1.370   8.165 -0.2028  0.2407 -0.1400
  296TIP3    H222448   0.167   1.315   8.305  2.3751  0.7077 -0.1488
  297TIP3   OH222449   1.334   3.979   0.656  0.5982 -0.2355  0.9892
  297TIP3    H122450   1.327   3.886   0.633 -1.5994  0.0832  0.1378
  297TIP3    H222451   1.252   4.017   0.626  2.8195  2.7186 -1.9663
  298TIP3   OH222452   6.281   2.741   1.078 -0.0418 -0.0651  0.7478
  298TIP3    H122453   6.232   2.784   1.009  0.4656  0.0037  0.4224
  298TIP3    H222454   6.244   2.653   1.082  1.6967 -1.0000 -1.5101
  299TIP3   OH222455   2.499   4.919   1.265  0.4406 -0.9086  0.2622
  299TIP3    H122456   2.452   4.888   1.342 -0.6147 -0.4397 -0.1865
  299TIP3    H222457   2.476   5.012   1.258 -0.7518 -1.2826 -1.5070
  300TIP3   OH222458   2.469   0.189   0.412  0.3822  0.4204 -0.4775
  300TIP3    H122459   2.421   0.106   0.412  0.1788  0.5205  0.6860
  300TIP3    H222460   2.402   0.256   0.428  0.6941  0.7057 -0.3495
  301TIP3   OH222461   4.395   3.886   1.643  0.2116  0.1452 -0.0034
  301TIP3    H122462   4.317   3.848   1.602  0.3238  0.3878 -0.4408
  301TIP3    H222463   4.371   3.893   1.735  0.4573 -1.7166  0.2509
  302TIP3   OH222464   0.686   0.541   8.616 -0.4188 -0.5754 -0.0069
  302TIP3    H122465   0.622   0.613   8.622  0.2281  0.3364 -2.6686
  302TIP3    H222466   0.633   0.462   8.607 -1.1726  0.0142 -0.8440
  303TIP3   OH222467   3.742   0.917   8.308 -0.1235  0.1830  0.4025
  303TIP3    H122468   3.831   0.896   8.280 -0.2850  0.2524 -0.1771
  303TIP3    H222469   3.750   0.998   8.357  0.3826 -0.7283  1.8937
  304TIP3   OH222470   3.942   5.080   0.852  0.1038 -0.1730  0.2881
  304TIP3    H122471   3.998   5.082   0.930  0.9236 -1.1445 -0.2528
  304TIP3    H222472   3.986   5.138   0.790 -0.0292 -0.1632  0.2022
  305TIP3   OH222473   2.288   6.465   0.534  0.1150  0.8624 -0.4004
  305TIP3    H122474   2.243   6.436   0.455  0.7910 -1.3498 -0.0299
  305TIP3    H222475   2.217   6.485   0.596 -0.4404 -1.9199 -0.0451
  306TIP3   OH222476   5.561   0.098   0.207 -0.5867  0.0318 -0.5219
  306TIP3    H122477   5.513   0.057   0.135 -1.8998  1.2939 -0.4027
  306TIP3    H222478   5.614   0.166   0.165 -1.6361  1.0189 -0.2874
  307TIP3   OH222479   0.714   3.039   2.702  0.1661 -0.2516 -1.0960
  307TIP3    H122480   0.744   3.119   2.745 -2.2820 -0.9450  2.2877
  307TIP3    H222481   0.715   2.972   2.771 -1.1976 -2.2729 -2.8897
  308TIP3   OH222482   3.574   2.959   0.022 -0.8507  0.3992 -0.2747
  308TIP3    H122483   3.556   3.009  -0.057 -1.0705  2.3226  0.9128
  308TIP3    H222484   3.507   2.890   0.023 -0.5227  0.0186 -1.9724
  309TIP3   OH222485   5.835   0.727   0.610  0.5416 -0.9051 -0.1998
  309TIP3    H122486   5.864   0.815   0.632  1.9851 -0.9359 -1.8080
  309TIP3    H222487   5.915   0.676   0.602 -0.2379 -2.2286  0.0629
  310TIP3   OH222488   5.294   4.354   8.881  0.1140  0.4949  0.3695
  310TIP3    H122489   5.284   4.436   8.833  0.6075  0.8222  0.8145
  310TIP3    H222490   5.331   4.379   8.965  0.8562 -0.2447  0.2830
  311TIP3   OH222491   4.079   6.050   0.725 -0.2038  0.1796  0.2038
  311TIP3    H122492   4.023   6.085   0.656  0.4970  0.7987 -0.0564
  311TIP3    H222493   4.029   6.064   0.806 -0.4111  0.7592 -0.0224
  312TIP3   OH222494   4.394   3.194   1.299  0.2831 -0.2045 -0.2314
  312TIP3    H122495   4.352   3.109   1.313  0.0904 -0.2771 -1.2013
  312TIP3    H222496   4.344   3.234   1.228  1.2151  0.1341 -0.7124
  313TIP3   OH222497   4.172   5.246   2.388 -0.0528  0.5962  0.3320
  313TIP3    H122498   4.102   5.224   2.449 -1.7272  0.2194 -1.6255
  313TIP3    H222499   4.208   5.162   2.360 -0.5680  0.6640 -0.5797
  314TIP3   OH222500   4.820   6.052   1.722 -0.3520 -0.7207 -0.2984
  314TIP3    H122501   4.794   6.119   1.784 -0.8568 -2.1613  1.1180
  314TIP3    H222502   4.795   6.087   1.636 -2.8485 -0.1262  0.6104
  315TIP3   OH222503   3.224   2.886   3.158 -0.1911  0.7996 -0.0932
  315TIP3    H122504   3.142   2.842   3.180 -0.6967  0.8042 -1.8167
  315TIP3    H222505   3.198   2.976   3.138  0.5962  1.4769  1.7179
  316TIP3   OH222506   5.842   0.352   7.698 -0.4802 -0.0352  0.0623
  316TIP3    H122507   5.778   0.419   7.721 -0.9761 -0.3360 -0.4255
  316TIP3    H222508   5.905   0.397   7.642 -0.1886  0.2873  0.6319
  317TIP3   OH222509   0.060   5.339   1.230 -0.1001  0.6203 -0.6271
  317TIP3    H122510   0.141   5.361   1.276  0.1485 -0.1938 -0.6602
  317TIP3    H222511  -0.009   5.358   1.293  0.2161 -0.1721 -0.0357
  318TIP3   OH222512   4.928   4.118   0.281  0.3692  0.0782 -0.2335
  318TIP3    H122513   4.934   4.183   0.351  3.0700 -0.9591  0.6260
  318TIP3    H222514   4.854   4.146   0.228  0.9418  3.3740  0.5295
  319TIP3   OH222515   0.102   0.458   2.248 -0.0652 -0.5508 -0.4810
  319TIP3    H122516   0.116   0.405   2.170  0.5092 -1.2959  0.1145
  319TIP3    H222517   0.090   0.395   2.319  0.5226  0.1031  0.2228
  320TIP3   OH222518   6.007   2.394   2.434  0.2850  0.7646  0.3775
  320TIP3    H122519   6.030   2.330   2.367  0.1475 -0.0354  1.0749
  320TIP3    H222520   6.056   2.472   2.410  0.2238  0.4953 -0.6589
  321TIP3   OH222521   0.610   0.735   0.956  0.0456  0.0835 -0.1650
  321TIP3    H122522   0.696   0.749   0.995 -0.0269  1.2650 -0.3765
  321TIP3    H222523   0.563   0.817   0.973 -0.4932  0.0573 -1.4300
  322TIP3   OH222524   3.965   2.293   0.802  0.4105 -0.0298 -0.1036
  322TIP3    H122525   3.905   2.352   0.847 -1.0557 -0.9653 -0.7243
  322TIP3    H222526   3.931   2.289   0.712  1.1745 -0.9097 -0.3689
  323TIP3   OH222527   5.364   0.497   3.145  0.2746  0.0867 -0.5979
  323TIP3    H122528   5.341   0.515   3.236  0.0205 -2.1049 -0.1770
  323TIP3    H222529   5.373   0.583   3.105  0.1620  1.1004  1.4352
  324TIP3   OH222530   4.293   1.706   3.458 -0.3021 -0.1538 -0.0829
  324TIP3    H122531   4.381   1.670   3.468 -0.3427 -0.2120  0.0816
  324TIP3    H222532   4.247   1.678   3.538 -0.7530 -0.9481 -0.6000
  325TIP3   OH222533   1.747   1.481   8.378 -0.2561  0.1323  0.5917
  325TIP3    H122534   1.712   1.543   8.313  1.1092  0.0568 -0.2536
  325TIP3    H222535   1.689   1.405   8.371  0.2428 -0.1374 -1.0415
  326TIP3   OH222536   3.751   2.609   2.191 -0.0635  0.4894 -0.3113
  326TIP3    H122537   3.687   2.681   2.194 -0.0092  0.5787 -1.0078
  326TIP3    H222538   3.713   2.547   2.128  0.5365  0.5512 -0.7421
  327TIP3   OH222539   0.336   4.471   0.235  0.0156 -0.3383  0.4580
  327TIP3    H122540   0.395   4.506   0.168  0.0290  2.1841  1.6721
  327TIP3    H222541   0.282   4.407   0.188  2.4338 -1.4022 -1.0945
  328TIP3   OH222542   5.898   5.494   2.504 -0.0643 -0.2103 -0.7215
  328TIP3    H122543   5.993   5.502   2.512 -0.2013  0.8943  0.0984
  328TIP3    H222544   5.864   5.531   2.585 -1.2139 -0.1105 -1.2265
  329TIP3   OH222545   5.869   5.482   8.461  0.2306  0.4555  1.1212
  329TIP3    H122546   5.783   5.514   8.433  0.9593  2.3033  0.8644
  329TIP3    H222547   5.851   5.430   8.539 -1.2625 -0.4519  0.2340
  330TIP3   OH222548   1.836   3.601   1.646 -0.3272  0.2521 -0.2569
  330TIP3    H122549   1.782   3.526   1.622 -1.1052  0.6744  0.1207
  330TIP3    H222550   1.904   3.605   1.579 -0.1382 -0.9195 -0.1514
  331TIP3   OH222551   6.092   4.922   8.243 -0.5530 -0.4453  0.1454
  331TIP3    H122552   6.176   4.965   8.258 -1.9709  2.2869  0.9783
  331TIP3    H222553   6.050   4.975   8.176 -1.0489 -2.7042 -1.4440
  332TIP3   OH222554   1.481   6.220   1.485 -0.5615 -0.0091  0.1357
  332TIP3    H122555   1.408   6.242   1.543  0.4522  2.0278  0.7300
  332TIP3    H222556   1.480   6.288   1.418  0.0925 -0.6536 -0.5513
  333TIP3   OH222557   5.787   5.189   1.986 -0.5029 -0.4244  0.2561
  333TIP3    H122558   5.735   5.112   1.964 -2.2183  0.6687  0.3213
  333TIP3    H222559   5.742   5.228   2.061 -0.8404  1.7242 -0.9884
  334TIP3   OH222560   6.190   2.178   1.556 -0.1832 -0.0346  0.0577
  334TIP3    H122561   6.219   2.161   1.646 -0.4702 -0.5873  0.0508
  334TIP3    H222562   6.123   2.112   1.540  0.3649 -0.3979 -0.8138
  335TIP3   OH222563   5.776   6.350   2.244  0.8700  0.2216 -0.1432
  335TIP3    H122564   5.778   6.446   2.253  1.7996  0.3178 -1.1625
  335TIP3    H222565   5.763   6.318   2.334 -0.1092  1.3100  0.1260
  336TIP3   OH222566   6.604   2.143   8.762  0.5179 -0.2664 -0.0126
  336TIP3    H122567   6.613   2.221   8.707  1.7514  0.3979  1.0756
  336TIP3    H222568   6.682   2.091   8.743 -1.1933 -2.2794 -2.1812
  337TIP3   OH222569   2.532   3.580   0.037  0.5971 -0.5209  0.2060
  337TIP3    H122570   2.532   3.540   0.124 -1.4514  0.7963  0.8991
  337TIP3    H222571   2.589   3.656   0.045 -1.6688  1.1881  1.3138
  338TIP3   OH222572   3.107   5.162   8.805 -0.6519 -0.1124 -0.5070
  338TIP3    H122573   3.019   5.200   8.798 -0.1737  0.9783 -0.7822
  338TIP3    H222574   3.164   5.224   8.759  0.2978 -0.6828 -0.1294
  339TIP3   OH222575   6.080   3.588   1.830  0.6665  0.1936 -0.7058
  339TIP3    H122576   6.172   3.585   1.858  0.2158 -0.1077  0.8522
  339TIP3    H222577   6.080   3.547   1.744  2.1799  1.3864 -1.3200
  340TIP3   OH222578   3.474   0.601   1.148 -0.4214  0.3303 -0.1118
  340TIP3    H122579   3.537   0.530   1.136 -0.6934  0.2806 -1.3168
  340TIP3    H222580   3.480   0.622   1.242  0.6068 -0.3863  0.0024
  341TIP3   OH222581   1.676   3.928   0.467 -0.4144  0.1434  0.1005
  341TIP3    H122582   1.674   4.024   0.468  0.7524  0.1797  0.6748
  341TIP3    H222583   1.647   3.904   0.379 -0.1555  1.0406 -0.2405
  342TIP3   OH222584   3.789   0.401   7.968 -0.0806  0.0339 -0.2741
  342TIP3    H122585   3.866   0.395   7.911  1.6049  0.8130  1.7956
  342TIP3    H222586   3.755   0.489   7.953 -0.3061 -0.1418 -0.8346
  343TIP3   OH222587   1.733   4.292   8.315 -0.3163  0.2589  0.5208
  343TIP3    H122588   1.753   4.235   8.240 -0.3868  1.0537 -0.1203
  343TIP3    H222589   1.684   4.365   8.277 -0.6039  0.5311  1.3967
  344TIP3   OH222590   1.995   6.430   8.450 -0.0002  0.3931 -0.2799
  344TIP3    H122591   2.016   6.523   8.449  1.6262  0.0444 -0.5266
  344TIP3    H222592   2.078   6.386   8.467 -0.9132 -0.9798  0.8702
  345TIP3   OH222593   4.090   6.386   8.413  0.1534 -0.4326 -0.5629
  345TIP3    H122594   4.133   6.460   8.371  1.7606 -0.9050  0.1831
  345TIP3    H222595   4.144   6.311   8.391  0.9058 -0.7435  2.0275
  346TIP3   OH222596   0.900   5.362   8.025  0.2471  0.1511 -0.0756
  346TIP3    H122597   0.875   5.379   7.934  1.1415  1.1927 -0.1469
  346TIP3    H222598   0.817   5.352   8.072 -0.3036 -3.0354 -1.4251
  347TIP3   OH222599   2.621   6.556   0.955 -0.1199  0.0225  0.3418
  347TIP3    H122600   2.651   6.615   1.025 -1.3946  1.0125  0.0923
  347TIP3    H222601   2.551   6.505   0.995  0.3614 -0.6916  0.2889
  348TIP3   OH222602   2.078   4.547   2.901  0.0127 -0.0460 -0.1165
  348TIP3    H122603   2.162   4.571   2.941  0.1343 -0.6835  0.0270
  348TIP3    H222604   2.101   4.523   2.811  0.1470 -1.2016  0.2120
  349TIP3   OH222605   0.148   1.531   2.593 -0.2457  0.1987 -0.1246
  349TIP3    H122606   0.238   1.544   2.625  0.1584 -1.0029 -0.7167
  349TIP3    H222607   0.135   1.601   2.530  1.5771 -1.5627 -2.6389
  350TIP3   OH222608   0.160   3.412   8.551  0.5177 -0.2593  0.3255
  350TIP3    H122609   0.128   3.485   8.497  0.6957 -0.7382 -0.4385
  350TIP3    H222610   0.090   3.347   8.547  1.3592 -1.1375 -1.0079
  351TIP3   OH222611   2.445   1.076   8.532  0.0123 -0.2112  0.1921
  351TIP3    H122612   2.428   1.045   8.443  2.1609 -0.8694 -0.0310
  351TIP3    H222613   2.505   1.150   8.521  0.9318 -0.7950  1.1231
  352TIP3   OH222614   6.055   5.660   8.834 -0.5069 -0.4237 -0.0529
  352TIP3    H122615   6.066   5.602   8.910 -0.3488 -2.3086 -1.4550
  352TIP3    H222616   6.144   5.686   8.811 -0.3790 -1.3531 -0.6749
  353TIP3   OH222617   4.562   4.798   0.047  0.3192  0.1042  0.1809
  353TIP3    H122618   4.530   4.786   0.136  1.8553 -2.4722  0.4917
  353TIP3    H222619   4.631   4.865   0.055  1.1631 -0.8443  1.1687
  354TIP3   OH222620   0.600   4.522   1.012  0.3442 -0.6949 -0.4468
  354TIP3    H122621   0.523   4.475   0.980  0.2211 -0.6210 -0.2659
  354TIP3    H222622   0.643   4.555   0.934 -1.8151  2.4683 -0.4631
  355TIP3   OH222623   2.875   4.628   2.493  0.3780  0.0042  0.1758
  355TIP3    H122624   2.927   4.643   2.572 -0.2784  2.2534  0.2499
  355TIP3    H222625   2.784   4.624   2.524  0.2891 -1.3356 -0.2297
  356TIP3   OH222626   6.218   4.771   1.079 -0.0124  0.1505 -0.1589
  356TIP3    H122627   6.216   4.859   1.042  1.0533  0.8327  1.3153
  356TIP3    H222628   6.126   4.748   1.093 -0.2573  1.5662  0.6726
  357TIP3   OH222629   1.937   3.194   1.149 -0.3366  0.6017 -0.5683
  357TIP3    H122630   1.990   3.239   1.215 -2.7043  0.5295  1.5634
  357TIP3    H222631   1.943   3.101   1.174 -1.5252  0.6087 -0.1913
  358TIP3   OH222632   1.073   5.601   2.009 -0.1015 -0.3712  0.0531
  358TIP3    H122633   0.986   5.607   2.048 -1.4090  1.8782 -2.7991
  358TIP3    H222634   1.116   5.683   2.036  0.3991 -0.5693 -0.1433
  359TIP3   OH222635   4.184   1.155   1.412  0.0183  0.0494  0.3323
  359TIP3    H122636   4.153   1.065   1.412 -1.1127  0.3990 -1.3791
  359TIP3    H222637   4.227   1.166   1.327 -1.0410  1.4965 -0.0510
  360TIP3   OH222638   4.307   3.565   8.556  0.0305 -0.5748 -0.7123
  360TIP3    H122639   4.371   3.495   8.569 -0.6528 -0.7593  2.4071
  360TIP3    H222640   4.360   3.644   8.541  0.8771 -1.2878 -1.5412
  361TIP3   OH222641   6.331   5.941   1.453 -0.3477  0.3368  0.4985
  361TIP3    H122642   6.360   6.032   1.465 -0.8647  0.4190  1.1621
  361TIP3    H222643   6.411   5.890   1.465  0.0320  0.7211 -0.2966
  362TIP3   OH222644   5.711   5.976   3.382 -0.0382 -0.0773  0.1455
  362TIP3    H122645   5.640   6.038   3.393  0.2343  0.2203  0.2421
  362TIP3    H222646   5.669   5.890   3.387 -0.5953  0.0908 -1.1395
  363TIP3   OH222647   0.366   1.617   2.849  0.6917  0.3547  0.2723
  363TIP3    H122648   0.414   1.700   2.843  0.6859  0.3094 -0.3956
  363TIP3    H222649   0.294   1.636   2.909  0.6515  0.8538  0.0717
  364TIP3   OH222650   0.950   5.053   0.668  0.4600  0.0866 -0.3165
  364TIP3    H122651   0.886   5.123   0.679 -2.4841 -1.9572 -2.6217
  364TIP3    H222652   0.918   4.982   0.724 -1.0588 -1.8784 -3.3339
  365TIP3   OH222653   3.275   0.713   0.202 -0.0987 -1.0283  0.3212
  365TIP3    H122654   3.354   0.726   0.150  0.2918 -3.5966  0.1552
  365TIP3    H222655   3.300   0.737   0.291  1.0919 -2.3445  0.3739
  366TIP3   OH222656   5.004   5.141   1.395 -0.1213  0.1081 -0.1717
  366TIP3    H122657   5.063   5.066   1.393 -0.8423 -0.6496  2.6375
  366TIP3    H222658   4.926   5.110   1.442 -1.8061  1.7324 -1.7137
  367TIP3   OH222659   3.485   1.290   1.181 -0.4786 -0.0792  0.3341
  367TIP3    H122660   3.558   1.267   1.122  1.6998  1.2315  2.3264
  367TIP3    H222661   3.486   1.221   1.247 -0.9385  0.0559  0.4840
  368TIP3   OH222662   0.735   2.773   0.021 -0.3075 -0.2223 -0.1026
  368TIP3    H122663   0.642   2.790   0.033 -0.1575  0.3294  0.3332
  368TIP3    H222664   0.739   2.710  -0.050 -1.0150 -0.2638 -0.1122
  369TIP3   OH222665   2.623   5.846   2.468  0.0595 -0.0731 -0.2502
  369TIP3    H122666   2.685   5.878   2.403 -0.5515  1.4430 -0.1341
  369TIP3    H222667   2.645   5.894   2.548 -2.2784  1.8206 -0.6252
  370TIP3   OH222668   6.080   1.080   2.906  0.1111 -0.0282 -0.3502
  370TIP3    H122669   5.991   1.109   2.925  0.5026  1.3836 -0.5705
  370TIP3    H222670   6.108   1.133   2.832  0.3101 -2.1384 -1.8957
  371TIP3   OH222671   6.367   5.394   8.802  0.4160  0.9893  0.0481
  371TIP3    H122672   6.396   5.302   8.800  0.5121  1.0301 -0.3584
  371TIP3    H222673   6.273   5.390   8.788  0.4294  0.9576 -0.0323
  372TIP3   OH222674   3.982   4.582   8.758 -0.0259 -0.5478  0.6915
  372TIP3    H122675   3.946   4.525   8.690 -0.9155  1.8560 -0.9924
  372TIP3    H222676   3.904   4.616   8.804  0.2827  1.2819 -0.0705
  373TIP3   OH222677   0.721   1.874   0.306 -0.8150  0.1703 -0.0790
  373TIP3    H122678   0.805   1.838   0.278  0.1026  1.6774  0.6209
  373TIP3    H222679   0.718   1.857   0.400 -0.2622  2.0293  0.3092
  374TIP3   OH222680   6.721   0.933   1.735 -0.7657 -0.0708 -0.5113
  374TIP3    H122681   6.795   0.990   1.753 -1.7858  0.6301  1.8704
  374TIP3    H222682   6.651   0.992   1.705 -1.1694 -0.3444 -0.1291
  375TIP3   OH222683   3.575   1.425   0.245 -0.1164 -0.2245 -0.0269
  375TIP3    H122684   3.499   1.380   0.282  0.9769 -1.4649  0.8417
  375TIP3    H222685   3.559   1.427   0.151 -1.5633  0.2275  0.2112
  376TIP3   OH222686   1.556   0.136   8.173  0.0230  0.0687  0.2900
  376TIP3    H122687   1.495   0.206   8.148  1.8205  2.2309  1.5456
  376TIP3    H222688   1.508   0.086   8.239 -0.4937  1.6663  1.1884
  377TIP3   OH222689   2.841   5.811   8.629  0.3103  0.0191 -0.0712
  377TIP3    H122690   2.867   5.858   8.550 -0.3646  1.6162  0.6116
  377TIP3    H222691   2.919   5.812   8.684 -0.0034  1.4413  0.4105
  378TIP3   OH222692   0.656   1.411   8.806  0.1369  0.0390 -0.2545
  378TIP3    H122693   0.630   1.460   8.884  0.6458  2.1076 -1.3072
  378TIP3    H222694   0.731   1.459   8.772 -0.6379 -0.2417 -2.5272
  379TIP3   OH222695   3.225   4.224   2.431  0.2875  0.1545 -0.0166
  379TIP3    H122696   3.320   4.214   2.419  0.1729 -1.4641  0.2737
  379TIP3    H222697   3.203   4.161   2.499 -1.2821 -0.8254 -1.3649
  380TIP3   OH222698   1.750   3.146   1.459 -0.1407  0.1554  0.3667
  380TIP3    H122699   1.684   3.140   1.390  0.2973 -1.7089  0.0585
  380TIP3    H222700   1.819   3.086   1.431  0.6955  0.4308  1.7524
  381TIP3   OH222701   5.335   1.611   2.158 -0.4612 -0.0709  0.3320
  381TIP3    H122702   5.324   1.705   2.143  1.9638  0.4272  1.2488
  381TIP3    H222703   5.401   1.605   2.227 -0.8637 -2.4626  0.6041
  382TIP3   OH222704   3.917   6.360   2.474  0.0091  0.0076  0.1529
  382TIP3    H122705   3.833   6.375   2.518 -0.5903 -0.4212 -0.8304
  382TIP3    H222706   3.979   6.348   2.546 -0.2960  2.5521  0.9637
  383TIP3   OH222707   6.632   3.347   0.289  0.4251  0.0847  0.5944
  383TIP3    H122708   6.550   3.321   0.247  0.2756  0.1477  0.8448
  383TIP3    H222709   6.667   3.416   0.233  1.0912 -0.9882 -0.3790
  384TIP3   OH222710   3.331   1.882   1.308  0.0734 -0.1303  0.1051
  384TIP3    H122711   3.264   1.822   1.340 -0.1665  0.8874  1.6237
  384TIP3    H222712   3.405   1.869   1.368 -0.6611  2.3816  1.6851
  385TIP3   OH222713   6.274   5.061   7.102  0.3208 -0.7628 -0.4371
  385TIP3    H122714   6.183   5.050   7.128  0.6015 -0.7167  0.6323
  385TIP3    H222715   6.324   5.045   7.183  1.5969 -5.3639 -1.7873
  386TIP3   OH222716   4.566   0.685   2.963 -0.4548 -0.8129 -0.0328
  386TIP3    H122717   4.488   0.694   3.018 -0.6790 -0.8232 -0.3447
  386TIP3    H222718   4.636   0.726   3.014 -0.9291  0.4065 -0.3105
  387TIP3   OH222719   4.107   5.762   0.707 -0.0048  0.6295 -0.7585
  387TIP3    H122720   4.046   5.740   0.637 -0.6416 -0.6811  0.1671
  387TIP3    H222721   4.103   5.857   0.714 -1.5651  0.6158 -1.0750
  388TIP3   OH222722   4.412   0.683   1.741  0.3102  0.2214  0.4913
  388TIP3    H122723   4.361   0.756   1.707 -0.9611 -1.9254 -2.6623
  388TIP3    H222724   4.501   0.717   1.747  0.0250  1.7735 -2.2308
  389TIP3   OH222725   6.708   2.548   1.988 -0.6041  0.0275  0.3745
  389TIP3    H122726   6.746   2.497   1.916 -0.4523 -1.1430  1.2628
  389TIP3    H222727   6.622   2.508   2.003 -0.6584  0.3044  0.8169
  390TIP3   OH222728   5.872   0.773   8.602  0.3229  0.0914 -0.2524
  390TIP3    H122729   5.803   0.734   8.656  0.8358 -0.1200  0.2642
  390TIP3    H222730   5.873   0.720   8.522  2.8239 -2.8197  1.5130
  391TIP3   OH222731   2.916   5.609   3.743 -0.2745  0.4684  0.3589
  391TIP3    H122732   2.918   5.608   3.648 -0.6928 -0.1396  0.3449
  391TIP3    H222733   2.890   5.698   3.766  1.5175  1.1404 -0.0320
  392TIP3   OH222734   4.928   5.977   8.870 -0.1246 -0.6474 -0.3726
  392TIP3    H122735   5.012   6.016   8.894 -0.4322  0.8052 -1.5127
  392TIP3    H222736   4.868   6.008   8.939  0.2856 -1.8966  0.5866
  393TIP3   OH222737   0.007   6.582   0.973 -0.3750  0.2800  0.3371
  393TIP3    H122738   0.043   6.570   0.885  2.0001 -0.4231  1.3140
  393TIP3    H222739   0.074   6.633   1.019 -0.8560 -0.6533  2.1557
  394TIP3   OH222740   1.873   2.852   3.299  0.5190 -0.0009  0.7005
  394TIP3    H122741   1.780   2.853   3.274  0.8911  0.5189 -0.7741
  394TIP3    H222742   1.878   2.786   3.367 -0.2852 -3.2299 -2.0848
  395TIP3   OH222743   5.349   5.902   0.583 -0.2680  0.4913 -0.2487
  395TIP3    H122744   5.263   5.942   0.571  0.5155  2.3886  0.1525
  395TIP3    H222745   5.411   5.969   0.555  1.1009 -1.4696 -2.2905
  396TIP3   OH222746   4.740   2.432   7.917  0.5260 -0.0271  0.5315
  396TIP3    H122747   4.746   2.385   8.000 -0.2943  0.6566  0.9866
  396TIP3    H222748   4.669   2.495   7.929 -0.3279 -0.6301 -1.0432
  397TIP3   OH222749   3.902   4.024   0.047 -0.1974  0.3195 -1.0738
  397TIP3    H122750   3.814   4.023   0.010  0.5623 -1.6029 -3.0354
  397TIP3    H222751   3.902   3.955   0.113 -0.3638  0.8683 -0.4905
  398TIP3   OH222752   2.774   0.844   1.001 -0.2903 -0.1111  0.4458
  398TIP3    H122753   2.866   0.826   1.017  0.9438  2.5178 -2.7216
  398TIP3    H222754   2.735   0.758   0.981  2.0008 -0.9883 -0.4887
  399TIP3   OH222755   1.215   0.223   2.848 -0.2108 -0.2800  0.0684
  399TIP3    H122756   1.165   0.152   2.808  0.2685 -0.4977 -0.1623
  399TIP3    H222757   1.291   0.179   2.887 -1.5541 -0.3219  2.8585
  400TIP3   OH222758   5.648   3.863   7.572 -0.2569 -0.3945  0.1030
  400TIP3    H122759   5.600   3.847   7.491 -2.6350  0.7539  1.1867
  400TIP3    H222760   5.634   3.785   7.625 -1.6069  0.2261  0.6963
  401TIP3   OH222761   1.892   1.663   8.018  0.0706  0.2642 -0.4618
  401TIP3    H122762   1.820   1.642   8.079  1.8715 -0.9428  1.3883
  401TIP3    H222763   1.914   1.579   7.978  0.1407  0.7212 -1.3931
  402TIP3   OH222764   3.060   5.866   2.728 -0.2126  0.4397  0.1265
  402TIP3    H122765   3.129   5.915   2.773  0.5113 -1.0296  0.6904
  402TIP3    H222766   2.984   5.873   2.787 -0.5521  1.9878 -0.4549
  403TIP3   OH222767   0.336   5.841   1.910 -0.7920 -0.4673  0.4687
  403TIP3    H122768   0.248   5.805   1.915 -0.9017 -0.2024  0.4730
  403TIP3    H222769   0.385   5.796   1.978 -1.3901  0.6789  1.7018
  404TIP3   OH222770   6.283   2.405   0.408  0.4347 -0.3723 -0.2702
  404TIP3    H122771   6.355   2.461   0.378  0.4290 -0.0113  0.3721
  404TIP3    H222772   6.283   2.332   0.346 -1.2363  1.5723 -2.7459
  405TIP3   OH222773   4.488   0.113   8.255  0.2887  0.1991 -0.1728
  405TIP3    H122774   4.517   0.087   8.168  1.1680 -0.2735  0.2506
  405TIP3    H222775   4.567   0.144   8.299 -0.5406  2.9099 -0.3686
  406TIP3   OH222776   4.174   0.176   1.945  0.2668  0.6600 -0.3261
  406TIP3    H122777   4.248   0.186   2.005  0.3783  0.9002 -0.5017
  406TIP3    H222778   4.214   0.153   1.861  0.0046 -1.7795  0.1530
  407TIP3   OH222779   5.953   2.933   7.854  0.4721 -0.8116  0.2715
  407TIP3    H122780   5.901   2.879   7.794  0.4016  0.6962 -1.0915
  407TIP3    H222781   5.947   3.021   7.818 -1.5568  0.7026  3.8122
  408TIP3   OH222782   4.510   5.895   1.769  0.1537  0.4133  0.5610
  408TIP3    H122783   4.518   5.886   1.674 -1.9380 -1.2007  0.4689
  408TIP3    H222784   4.599   5.879   1.802  1.1126  1.8576 -1.1069
  409TIP3   OH222785   0.580   1.751   3.013 -0.1429 -0.4600  0.5430
  409TIP3    H122786   0.630   1.826   3.045 -0.6347 -0.6465  1.8076
  409TIP3    H222787   0.490   1.768   3.042 -0.8548 -0.1509 -1.6454
  410TIP3   OH222788   2.076   4.825   3.278  0.1814 -0.0201  0.2438
  410TIP3    H122789   2.169   4.846   3.270  0.5537 -2.0260 -1.5039
  410TIP3    H222790   2.072   4.760   3.348 -0.0725  0.7114  0.9347
  411TIP3   OH222791   3.936   3.310   8.451  0.8311  0.1728 -0.0111
  411TIP3    H122792   3.852   3.353   8.434 -0.8455 -1.7883  2.6540
  411TIP3    H222793   4.001   3.379   8.435 -1.4438  2.6265  0.5593
  412TIP3   OH222794   5.190   5.930   1.171  0.2430  0.7712 -0.2667
  412TIP3    H122795   5.183   5.858   1.234 -0.2123  0.1073 -1.0531
  412TIP3    H222796   5.129   5.997   1.204 -0.6972  0.0459 -0.4865
  413TIP3   OH222797   3.114   5.606   8.883  0.2683 -0.8936 -0.1117
  413TIP3    H122798   3.101   5.690   8.838 -1.6097 -0.3952  1.2622
  413TIP3    H222799   3.064   5.543   8.831 -2.3040 -0.2332  1.3848
  414TIP3   OH222800   0.432   4.383   1.828 -0.6085  0.1933  0.1250
  414TIP3    H122801   0.478   4.422   1.902 -1.6402 -0.4349  1.1373
  414TIP3    H222802   0.427   4.453   1.763 -0.2403  0.9578  0.8996
  415TIP3   OH222803   5.451   1.157   8.872 -0.4115 -0.0053  0.2692
  415TIP3    H122804   5.540   1.138   8.843  0.3658  2.7866  0.5896
  415TIP3    H222805   5.429   1.240   8.830 -2.4947 -0.1025  1.0258
  416TIP3   OH222806   3.432   1.454   1.446  0.3548 -0.1668 -1.4037
  416TIP3    H122807   3.348   1.472   1.402  0.3902  1.3969 -0.9071
  416TIP3    H222808   3.498   1.470   1.378  0.3330  0.7431 -1.2300
  417TIP3   OH222809   1.745   0.519   0.089 -0.3718 -0.0945 -0.3358
  417TIP3    H122810   1.727   0.528  -0.005  0.3215 -2.1851 -0.7209
  417TIP3    H222811   1.670   0.560   0.132 -0.5298  1.2188 -1.7795
  418TIP3   OH222812   2.135   4.122   1.720 -0.1082  0.1922 -0.4320
  418TIP3    H122813   2.059   4.076   1.758  0.4814  0.0468  0.6034
  418TIP3    H222814   2.198   4.053   1.703  0.3496  0.4795  0.0745
  419TIP3   OH222815   3.021   0.250   1.243 -0.3501  0.1083  0.2917
  419TIP3    H122816   2.961   0.203   1.301  0.2684 -0.7317  0.2740
  419TIP3    H222817   3.043   0.186   1.175  0.7643  0.3047  0.4506
  420TIP3   OH222818   2.824   3.429   0.386  0.3346  0.3106  0.0785
  420TIP3    H122819   2.845   3.445   0.294  1.7782  3.5116  0.8265
  420TIP3    H222820   2.752   3.366   0.383 -0.8781  1.6055 -3.3199
  421TIP3   OH222821   4.463   5.871   0.687  0.1772 -0.5239 -0.0718
  421TIP3    H122822   4.490   5.824   0.766  1.9876 -0.2477 -0.4869
  421TIP3    H222823   4.495   5.817   0.615  0.8210  0.5101 -0.5751
  422TIP3   OH222824   4.761   5.130   1.228 -0.0367  0.4231 -0.4631
  422TIP3    H122825   4.762   5.220   1.194 -0.7272 -0.3189 -2.5976
  422TIP3    H222826   4.849   5.097   1.213  0.2477  0.7536  0.4191
  423TIP3   OH222827   5.518   5.074   8.789 -0.4893  0.4156 -0.2939
  423TIP3    H122828   5.472   5.142   8.839  0.5879  0.1136  1.2070
  423TIP3    H222829   5.455   5.045   8.724 -0.7225  3.4285 -1.5762
  424TIP3   OH222830   4.198   4.003   1.345  0.2931 -0.2557  0.0626
  424TIP3    H122831   4.213   4.017   1.252 -1.9800  0.4715 -0.2353
  424TIP3    H222832   4.241   4.077   1.388 -1.6288  1.3922 -0.7070
  425TIP3   OH222833   1.002   6.029   3.187  0.3169 -0.0445  0.5445
  425TIP3    H122834   1.038   5.941   3.170  0.1820 -0.0660  0.3615
  425TIP3    H222835   0.910   6.013   3.206  0.0863  0.1339 -0.3611
  426TIP3   OH222836   0.207   0.657   0.743 -0.0706 -0.0604 -0.3156
  426TIP3    H122837   0.129   0.618   0.784  0.1665 -1.3423 -1.0671
  426TIP3    H222838   0.229   0.730   0.802 -1.4680 -0.0374  0.2440
  427TIP3   OH222839   2.989   0.125   2.627 -0.4520 -0.0102  0.4510
  427TIP3    H122840   3.072   0.077   2.631  0.1362  0.8807 -0.6095
  427TIP3    H222841   2.927   0.068   2.672  0.2401 -1.7449 -0.6551
  428TIP3   OH222842   0.138   6.105   2.659  0.1392 -0.1396 -0.0080
  428TIP3    H122843   0.114   6.194   2.684  0.0953 -0.3142  0.5964
  428TIP3    H222844   0.083   6.086   2.583  1.0714  0.8022 -0.9599
  429TIP3   OH222845   1.513   0.684   2.334  0.2765 -0.1846 -0.1053
  429TIP3    H122846   1.475   0.607   2.375  0.0832 -0.0835 -0.0927
  429TIP3    H222847   1.438   0.730   2.296  0.4697 -0.3413 -0.6796
  430TIP3   OH222848   5.129   4.339   1.829  0.2101 -0.1626  0.0255
  430TIP3    H122849   5.151   4.252   1.862 -1.0901 -0.6756 -0.3906
  430TIP3    H222850   5.170   4.399   1.891  1.1268 -1.0670  0.3196
  431TIP3   OH222851   0.769   1.717   7.347 -0.6801 -0.1053 -0.3869
  431TIP3    H122852   0.862   1.707   7.324 -0.6743  1.0244 -0.9669
  431TIP3    H222853   0.757   1.812   7.351 -1.4740 -0.2494  1.1533
  432TIP3   OH222854   5.142   0.233   8.820 -0.4044 -0.1456  0.1243
  432TIP3    H122855   5.129   0.246   8.914  0.1442 -2.4804  0.5911
  432TIP3    H222856   5.065   0.271   8.779 -1.3697 -0.3818  1.6461
  433TIP3   OH222857   4.893   2.096   0.439  0.3739 -0.6785  0.1494
  433TIP3    H122858   4.854   2.172   0.482 -0.4262 -0.1920 -1.3856
  433TIP3    H222859   4.867   2.021   0.493 -0.7924 -0.1096  0.3841
  434TIP3   OH222860   2.544   6.151   1.555 -0.1900  0.1015  0.2045
  434TIP3    H122861   2.559   6.242   1.529 -0.3297  0.0343 -0.1183
  434TIP3    H222862   2.535   6.104   1.472  3.2067 -0.7896  0.1611
  435TIP3   OH222863   6.122   5.715   0.630 -0.2329 -0.0931 -0.5588
  435TIP3    H122864   6.217   5.717   0.618 -0.1302 -1.0395  0.0365
  435TIP3    H222865   6.098   5.806   0.646  0.7891 -0.0397  0.8312
  436TIP3   OH222866   5.847   1.204   8.128 -0.7233  0.1493 -0.0186
  436TIP3    H122867   5.842   1.114   8.159  1.2397 -0.3202 -0.9476
  436TIP3    H222868   5.804   1.202   8.042 -0.1024 -0.0612 -0.3302
  437TIP3   OH222869   4.591   1.927   2.307  0.1778 -0.0837  0.5384
  437TIP3    H122870   4.555   1.838   2.305  2.0791 -0.8809 -0.4670
  437TIP3    H222871   4.563   1.961   2.392 -0.4411 -1.6994  1.0324
  438TIP3   OH222872   1.849   2.857   0.403 -0.0260  0.2219 -0.1426
  438TIP3    H122873   1.889   2.940   0.428  1.2197 -0.3037 -0.3091
  438TIP3    H222874   1.861   2.852   0.309  0.6939 -0.5330 -0.0218
  439TIP3   OH222875   6.326   6.741   8.289  0.1498 -0.6447 -0.4501
  439TIP3    H122876   6.389   6.712   8.355 -1.4585 -0.8607  1.0435
  439TIP3    H222877   6.277   6.662   8.266  0.6154 -0.5575 -1.8826
  440TIP3   OH222878   2.507   1.963   8.583 -0.0494 -0.4754  0.3288
  440TIP3    H122879   2.467   1.879   8.603 -1.7546  0.2038 -0.0395
  440TIP3    H222880   2.504   1.969   8.487 -1.6051  0.7146  0.4018
  441TIP3   OH222881   4.625   3.912   3.066  0.2062  0.1438 -0.1110
  441TIP3    H122882   4.562   3.926   3.137  0.8761 -0.5696  0.6474
  441TIP3    H222883   4.692   3.978   3.080  1.2331 -1.0740  0.9925
  442TIP3   OH222884   1.926   1.480   1.027 -0.1390 -0.1166 -0.1970
  442TIP3    H122885   1.901   1.417   0.959 -0.1209  0.2460 -0.5444
  442TIP3    H222886   2.013   1.509   1.001 -0.9620  1.6015 -1.2044
  443TIP3   OH222887   2.873   6.247   8.129 -0.0831 -0.2945 -0.0485
  443TIP3    H122888   2.841   6.186   8.062 -0.8699  0.4982 -0.4145
  443TIP3    H222889   2.796   6.266   8.183 -0.8104  3.0295 -1.9928
  444TIP3   OH222890   2.467   6.177   8.085 -0.1868 -0.0682  0.3589
  444TIP3    H122891   2.553   6.137   8.073 -1.0234 -1.7888 -0.1599
  444TIP3    H222892   2.418   6.153   8.007 -2.3738 -2.4436  2.3072
  445TIP3   OH222893   6.435   6.634   0.532  0.6155  0.2506  0.2863
  445TIP3    H122894   6.463   6.547   0.504  0.5581  0.2502  0.2288
  445TIP3    H222895   6.459   6.638   0.625  1.9032  0.6872 -0.0375
  446TIP3   OH222896   2.095   5.824   0.092  0.5004  0.2111  0.1734
  446TIP3    H122897   2.013   5.791   0.053  0.3007  2.3843 -1.4260
  446TIP3    H222898   2.154   5.836   0.018  1.6639  0.3915  1.0943
  447TIP3   OH222899   6.485   6.294   0.702 -0.1725 -0.3876  0.5473
  447TIP3    H122900   6.443   6.374   0.734  0.3916 -0.0356  0.4175
  447TIP3    H222901   6.532   6.260   0.779  2.6228  1.3781 -0.2131
  448TIP3   OH222902   1.157   6.206   8.438  0.0697  0.6658  0.3030
  448TIP3    H122903   1.195   6.179   8.522 -0.8476  1.8553  1.1315
  448TIP3    H222904   1.163   6.302   8.438 -1.7600  0.8246 -0.0668
  449TIP3   OH222905   0.659   2.167   8.710 -0.1070 -0.5000 -0.3046
  449TIP3    H122906   0.592   2.152   8.644  0.4060 -0.7719 -0.7741
  449TIP3    H222907   0.693   2.080   8.731 -1.5771 -0.6435  1.7494
  450TIP3   OH222908   4.703   4.701   2.755 -0.4978 -0.3243 -0.6376
  450TIP3    H122909   4.752   4.704   2.672 -0.4579  0.9391 -0.5970
  450TIP3    H222910   4.611   4.704   2.728 -0.4722  1.0098 -0.6337
  451TIP3   OH222911   4.149   0.482   2.159  0.0364 -0.2700 -0.4578
  451TIP3    H122912   4.185   0.453   2.075  1.6161  0.5804 -0.1025
  451TIP3    H222913   4.066   0.434   2.166  0.3358 -1.1169 -2.0284
  452TIP3   OH222914   3.982   0.093   3.332 -0.1579  0.4192 -0.0386
  452TIP3    H122915   4.036   0.171   3.346 -1.6197  1.9482 -2.2633
  452TIP3    H222916   3.905   0.107   3.388 -0.5971  0.7857 -0.7237
  453TIP3   OH222917   0.962   4.616   1.950  0.1449 -0.2334  0.2276
  453TIP3    H122918   0.960   4.691   1.890  0.1473  0.3592  0.9597
  453TIP3    H222919   0.997   4.651   2.031  0.5627 -1.1315  0.4524
  454TIP3   OH222920   4.519   0.469   0.674  0.4337 -0.3525  0.0540
  454TIP3    H122921   4.438   0.519   0.687  1.0971  0.3158  2.0671
  454TIP3    H222922   4.587   0.536   0.667  1.0594 -0.9282  0.4950
  455TIP3   OH222923   4.128   0.272   1.184  0.6590  0.4911 -0.1919
  455TIP3    H122924   4.220   0.263   1.159  0.8831 -0.2139  0.8296
  455TIP3    H222925   4.081   0.211   1.128  1.0173 -0.2775  0.3338
  456TIP3   OH222926   1.449   0.632   1.567  0.0769  0.3603 -0.4839
  456TIP3    H122927   1.444   0.573   1.491 -1.5772  1.0338 -0.9508
  456TIP3    H222928   1.525   0.686   1.550  1.3999 -1.3298 -0.2443
  457TIP3   OH222929   2.816   2.656   0.403 -0.6291  0.1334 -0.0699
  457TIP3    H122930   2.818   2.574   0.354  0.5412  0.2996 -0.3173
  457TIP3    H222931   2.873   2.715   0.354  0.5981  0.3008  1.4899
  458TIP3   OH222932   1.234   2.023   1.733  0.4741  0.3682  0.2168
  458TIP3    H122933   1.258   2.071   1.812 -0.4446 -0.8587  1.2907
  458TIP3    H222934   1.161   1.967   1.760  1.9886 -2.2552 -0.6939
  459TIP3   OH222935   4.408   5.104   3.625  0.2355  0.0283 -0.4281
  459TIP3    H122936   4.395   5.100   3.530  2.7770  0.1401 -0.8489
  459TIP3    H222937   4.418   5.198   3.643 -3.0065  0.2969  0.4583
  460TIP3   OH222938   5.299   5.746   0.925  0.0286 -1.0227 -0.2237
  460TIP3    H122939   5.244   5.819   0.955  0.4313 -0.0798 -1.6439
  460TIP3    H222940   5.236   5.680   0.896 -0.4839  0.3505 -2.5600
  461TIP3   OH222941   2.681   1.906   0.770  0.3632  0.0061 -0.4152
  461TIP3    H122942   2.766   1.949   0.762  0.3864  0.4141  1.5943
  461TIP3    H222943   2.641   1.946   0.847 -0.5378 -2.0512  0.2443
  462TIP3   OH222944   0.335   5.806   0.276 -0.3825 -0.6034  0.0857
  462TIP3    H122945   0.430   5.796   0.282  0.0012  2.5194  0.8573
  462TIP3    H222946   0.313   5.775   0.188  1.3031 -1.4922 -0.0597
  463TIP3   OH222947   3.505   4.183   3.190  0.3331  0.0265  0.0923
  463TIP3    H122948   3.420   4.148   3.165  0.3418 -0.3940  0.6412
  463TIP3    H222949   3.559   4.106   3.209 -0.1410  0.2774  2.9549
  464TIP3   OH222950   6.367   4.288   7.869 -0.2837  0.0632  0.2688
  464TIP3    H122951   6.414   4.357   7.822  0.2230 -1.0923 -0.9714
  464TIP3    H222952   6.341   4.330   7.952 -1.4662  2.2488 -1.0980
  465TIP3   OH222953   6.409   2.905   1.851 -0.3029  0.6603  0.6258
  465TIP3    H122954   6.415   3.000   1.852 -1.5212  0.7552  1.1519
  465TIP3    H222955   6.327   2.887   1.804 -0.9514 -0.0485  1.9699
  466TIP3   OH222956   2.281   5.856   8.803 -0.1200 -0.4484 -0.3550
  466TIP3    H122957   2.360   5.909   8.794  0.3917 -0.8947  1.2123
  466TIP3    H222958   2.271   5.813   8.718  2.1782 -1.5390 -0.1448
  467TIP3   OH222959   5.081   1.510   2.194  0.1192  0.6675 -0.4010
  467TIP3    H122960   5.139   1.584   2.175  1.2977  0.0684  0.6704
  467TIP3    H222961   5.105   1.483   2.283 -0.6601 -0.6526 -0.5603
  468TIP3   OH222962   4.165   0.413   0.458 -0.0593 -0.7940  0.1919
  468TIP3    H122963   4.095   0.462   0.414  0.1558  0.4395  1.1679
  468TIP3    H222964   4.245   0.462   0.437 -0.0785  0.5404  2.8124
  469TIP3   OH222965   2.923   4.368   8.047  0.1212  0.0328 -0.2384
  469TIP3    H122966   2.952   4.346   8.136 -0.2844  1.1599  0.1869
  469TIP3    H222967   2.932   4.286   7.999  0.8331 -0.4778  0.7105
  470TIP3   OH222968   0.462   3.141   8.174  0.3725  0.3955 -0.5809
  470TIP3    H122969   0.437   3.213   8.117  3.5037  1.8449 -0.3792
  470TIP3    H222970   0.399   3.144   8.246 -0.6505  1.7413 -1.4802
  471TIP3   OH222971   4.779   2.789   8.038 -0.4106  0.1872  0.5700
  471TIP3    H122972   4.692   2.814   8.070 -0.1076  1.5304  0.4139
  471TIP3    H222973   4.775   2.805   7.943  0.3099  1.3059  0.6999
  472TIP3   OH222974   6.114   1.950   0.511 -0.0227  0.3284 -0.4919
  472TIP3    H122975   6.133   1.856   0.508 -1.3679  0.0062 -0.0038
  472TIP3    H222976   6.088   1.966   0.602 -1.0539  0.8943 -0.8675
  473TIP3   OH222977   0.725   3.175   8.628  0.2783 -0.3745 -0.2314
  473TIP3    H122978   0.777   3.237   8.678 -1.9785  0.7183  0.9417
  473TIP3    H222979   0.740   3.090   8.671  2.4498 -0.4996 -1.1032
  474TIP3   OH222980   6.083   1.061   0.012 -0.1993  0.2120 -0.1292
  474TIP3    H122981   6.061   1.140   0.061 -1.0745 -0.1943  0.1529
  474TIP3    H222982   6.126   1.004   0.076  0.0360  0.2795 -0.2243
  475TIP3   OH222983   3.915   4.409   3.424 -0.4705  0.2704 -0.2966
  475TIP3    H122984   3.929   4.357   3.502 -0.3288  1.0806  0.2361
  475TIP3    H222985   3.916   4.500   3.455 -2.3016  0.5452 -0.9363
  476TIP3   OH222986   2.297   4.093   2.772  0.0476  0.1993  0.0884
  476TIP3    H122987   2.246   4.128   2.699 -0.1885  1.1080  0.6714
  476TIP3    H222988   2.232   4.058   2.833  0.2920 -1.6806 -0.6624
  477TIP3   OH222989   0.022   1.318   1.715  0.3596 -0.0788 -0.1968
  477TIP3    H122990   0.084   1.252   1.744 -0.5135 -0.4137  0.9564
  477TIP3    H222991   0.027   1.387   1.781 -0.0816  0.1586 -0.4036
  478TIP3   OH222992   2.376   4.262   8.045  0.3982 -0.1411 -0.4086
  478TIP3    H122993   2.465   4.284   8.073  0.4207 -1.8120  0.9337
  478TIP3    H222994   2.388   4.213   7.963  0.6182  0.5520 -0.8039
  479TIP3   OH222995   1.954   5.368   8.120  0.0752  0.4455 -0.4535
  479TIP3    H122996   1.937   5.462   8.127 -0.4753  0.3474 -0.4063
  479TIP3    H222997   1.943   5.335   8.209  2.8076  0.7180  0.0580
  480TIP3   OH222998   0.540   5.631   0.391  0.1153 -0.1308  0.1324
  480TIP3    H122999   0.515   5.547   0.430  0.1373 -0.5302 -0.6921
  480TIP3    H223000   0.559   5.687   0.466 -0.1730 -0.7754  0.7027
  481TIP3   OH223001   3.840   6.378   2.012  0.2557  0.2444  0.0621
  481TIP3    H123002   3.849   6.344   2.101  2.1545 -1.7838 -0.8154
  481TIP3    H223003   3.925   6.418   1.993  1.4383 -2.9228 -2.1339
  482TIP3   OH223004   3.042   2.292   2.265 -0.5046 -0.5138 -0.3656
  482TIP3    H123005   2.974   2.232   2.233  0.1307 -1.2375 -0.4015
  482TIP3    H223006   3.009   2.323   2.349 -0.6699 -1.2264 -0.1602
  483TIP3   OH223007   6.707   5.425   0.506 -0.1758 -0.1202  0.3322
  483TIP3    H123008   6.652   5.407   0.582  0.7582 -1.8310  0.6621
  483TIP3    H223009   6.790   5.457   0.543 -0.7427  2.0166 -0.1365
  484TIP3   OH223010   6.204   3.900   1.905  0.0839 -0.4127  0.1723
  484TIP3    H123011   6.127   3.844   1.896  0.2817 -0.5911 -0.4570
  484TIP3    H223012   6.276   3.848   1.867  0.3442  0.0986 -0.0401
  485TIP3   OH223013   1.583   1.805   0.430  0.0853  0.0212  0.3507
  485TIP3    H123014   1.493   1.828   0.453  0.3324  0.4720  0.8911
  485TIP3    H223015   1.597   1.719   0.469 -0.4775 -0.5738 -0.7166
  486TIP3   OH223016   1.652   1.514   0.026  0.0221  0.0631 -0.4188
  486TIP3    H123017   1.620   1.464  -0.050 -1.8880 -0.2112  0.5127
  486TIP3    H223018   1.572   1.548   0.067  1.0918  1.0500  0.9136
  487TIP3   OH223019   6.208   0.765   2.687 -0.2275  0.5045  0.2326
  487TIP3    H123020   6.240   0.763   2.777  2.0066  0.0403 -0.5247
  487TIP3    H223021   6.174   0.854   2.676  0.8221  1.0325  1.0879
  488TIP3   OH223022   0.482   0.051   8.806 -0.1190  0.7160  0.0374
  488TIP3    H123023   0.512   0.011   8.724 -0.5280 -1.8417  1.0340
  488TIP3    H223024   0.386   0.046   8.802 -0.1664 -2.0791  1.7312
  489TIP3   OH223025   2.340   5.356   7.931  0.0713  0.1778 -0.1055
  489TIP3    H123026   2.281   5.296   7.976 -1.3662  1.3591 -0.3434
  489TIP3    H223027   2.317   5.348   7.838 -2.2650  3.1342  0.0594
  490TIP3   OH223028   1.847   0.332   0.247 -0.0813 -0.1875  0.7240
  490TIP3    H123029   1.889   0.378   0.319  2.6949  0.1363 -0.9586
  490TIP3    H223030   1.826   0.400   0.184  2.0769 -0.8656 -0.8438
  491TIP3   OH223031   4.549   1.620   3.501  0.1864 -0.0308  0.4457
  491TIP3    H123032   4.626   1.579   3.462 -1.4040 -2.5398 -0.2683
  491TIP3    H223033   4.585   1.685   3.562  2.9245 -2.2132  1.3664
  492TIP3   OH223034   0.340   1.513   8.539  0.1868  0.1086  0.6289
  492TIP3    H123035   0.365   1.453   8.469 -0.9187  0.4149 -0.0576
  492TIP3    H223036   0.340   1.458   8.618 -0.4952 -0.7402  0.0668
  493TIP3   OH223037   0.112   1.774   0.040 -0.1292 -0.0994 -0.2073
  493TIP3    H123038   0.169   1.821   0.102  0.3275  3.0277 -2.7319
  493TIP3    H223039   0.168   1.707   0.003  1.0251  0.9443 -0.4375
  494TIP3   OH223040   5.793   4.172   2.304 -0.2671 -0.0703  0.1860
  494TIP3    H123041   5.845   4.092   2.297  0.4287  0.4977 -1.5440
  494TIP3    H223042   5.710   4.143   2.342 -0.2374 -1.7199 -0.9267
  495TIP3   OH223043   5.249   4.140   2.553  0.0725 -0.1860 -0.3934
  495TIP3    H123044   5.268   4.083   2.627 -0.4149 -0.2151 -0.2849
  495TIP3    H223045   5.218   4.221   2.592 -2.1021 -0.8663 -0.5428
  496TIP3   OH223046   1.219   5.128   0.676  0.3420 -0.2999 -0.7885
  496TIP3    H123047   1.131   5.095   0.659  0.9235 -1.5275 -1.5297
  496TIP3    H223048   1.236   5.189   0.604  0.6373 -1.1828 -1.4860
  497TIP3   OH223049   2.727   3.082   3.095 -0.4982  0.0674 -0.2301
  497TIP3    H123050   2.793   3.151   3.092 -0.2629 -0.0421  1.4314
  497TIP3    H223051   2.766   3.008   3.048  0.0398  0.4217 -0.3442
  498TIP3   OH223052   2.571   5.583   2.452 -0.2623  0.7210  0.3881
  498TIP3    H123053   2.481   5.609   2.432 -0.0526  0.5186 -0.9650
  498TIP3    H223054   2.616   5.665   2.475 -0.0766  1.3505 -1.9447
  499TIP3   OH223055   0.334   4.985   1.763 -0.7194  0.1394 -0.2932
  499TIP3    H123056   0.417   5.006   1.806 -0.5931 -0.6972 -0.1210
  499TIP3    H223057   0.268   5.030   1.817 -0.4358  0.2949 -0.0723
  500TIP3   OH223058   2.371   4.494   1.734 -0.0644 -0.1490  0.7138
  500TIP3    H123059   2.311   4.510   1.662  0.2404  0.9111  0.6813
  500TIP3    H223060   2.455   4.528   1.703  0.7448 -2.1973  0.4979
  501TIP3   OH223061   2.158   0.616   3.048  0.0122 -0.1002  0.1373
  501TIP3    H123062   2.158   0.703   3.008  1.0091  0.3951  1.1679
  501TIP3    H223063   2.084   0.617   3.108  1.6835  1.0972  2.2832
  502TIP3   OH223064   2.989   5.227   1.959 -0.5720 -0.0562 -0.1877
  502TIP3    H123065   2.958   5.312   1.987 -1.2641 -0.0070 -1.0755
  502TIP3    H223066   3.084   5.230   1.973 -0.4015  1.3521 -1.4531
  503TIP3   OH223067   4.651   3.251   8.844  0.4796  0.0980  0.0932
  503TIP3    H123068   4.642   3.244   8.939 -1.5946 -0.9385 -0.1164
  503TIP3    H223069   4.686   3.166   8.817 -0.1148 -0.0705 -0.1621
  504TIP3   OH223070   2.848   4.952   2.345 -0.1174 -0.0163  0.2254
  504TIP3    H123071   2.782   4.882   2.347  0.1413 -0.2685  0.0315
  504TIP3    H223072   2.826   5.003   2.267 -1.7172  1.5157  1.5852
  505TIP3   OH223073   4.813   0.732   0.970 -0.1706 -0.0575 -0.7743
  505TIP3    H123074   4.846   0.646   0.994 -0.8715  0.3533  1.9540
  505TIP3    H223075   4.718   0.724   0.973 -0.2422  0.9514  0.1234
  506TIP3   OH223076   2.678   1.278   8.170  0.2342 -0.0068 -0.0633
  506TIP3    H123077   2.685   1.373   8.164 -2.0883  0.2093 -0.0379
  506TIP3    H223078   2.665   1.249   8.080 -3.6062  0.2267  0.2654
  507TIP3   OH223079   4.335   3.788   0.623  0.1997  0.9531 -0.3054
  507TIP3    H123080   4.371   3.713   0.575  0.9601  1.7517 -1.0439
  507TIP3    H223081   4.274   3.828   0.561  1.6502  2.3541 -0.9132
  508TIP3   OH223082   1.440   3.964   2.203 -0.2659 -0.1400 -0.0609
  508TIP3    H123083   1.390   3.960   2.284 -0.0661 -1.5830  0.0073
  508TIP3    H223084   1.435   3.876   2.167 -0.8925  0.6045 -1.9627
  509TIP3   OH223085   4.321   5.819   8.728 -0.2386 -0.7568  0.3195
  509TIP3    H123086   4.337   5.896   8.673  1.7278  0.5875  2.6317
  509TIP3    H223087   4.235   5.834   8.766 -0.8054 -0.8071 -0.8890
  510TIP3   OH223088   2.111   5.600   2.177  0.2019 -0.4497 -0.1562
  510TIP3    H123089   2.037   5.645   2.135  2.7237  2.9021 -1.4413
  510TIP3    H223090   2.118   5.642   2.263  0.9407 -0.3245 -0.2750
  511TIP3   OH223091   1.592   2.072   0.929  0.0467  0.3478 -0.5975
  511TIP3    H123092   1.679   2.050   0.898  0.7182  1.4909  0.3673
  511TIP3    H223093   1.595   2.058   1.024 -1.2325 -0.8493 -0.7054
  512TIP3   OH223094   6.662   3.684   1.906 -0.4843  0.0117  0.2205
  512TIP3    H123095   6.757   3.685   1.910 -0.4077  1.5193 -0.9349
  512TIP3    H223096   6.639   3.593   1.889  0.9231 -0.0116 -1.9591
  513TIP3   OH223097   4.203   3.323   1.126 -0.2015 -0.4463 -0.0178
  513TIP3    H123098   4.112   3.323   1.155 -0.2207  0.6366 -0.0377
  513TIP3    H223099   4.205   3.385   1.054  0.7926  0.5671  0.8394
  514TIP3   OH223100   6.485   2.444   1.376  0.3605  0.0887 -0.2100
  514TIP3    H123101   6.580   2.449   1.374  0.4983  1.4779  3.3630
  514TIP3    H223102   6.457   2.534   1.395 -1.7722 -0.1185 -1.9672
  515TIP3   OH223103   1.154   6.735   2.252 -0.3793  0.3915  0.1240
  515TIP3    H123104   1.097   6.750   2.328  0.1644  2.4182  0.1738
  515TIP3    H223105   1.104   6.768   2.178 -1.2886 -2.3964 -0.6403
  516TIP3   OH223106   5.752   5.157   8.625 -0.6477  0.1223  0.8657
  516TIP3    H123107   5.681   5.127   8.681 -1.4720 -0.1865 -0.3033
  516TIP3    H223108   5.832   5.127   8.668 -1.2268  0.2301  2.0526
  517TIP3   OH223109   5.318   1.505   8.380 -0.0254 -0.8652  0.5356
  517TIP3    H123110   5.406   1.493   8.417  0.3730 -0.3563 -0.2284
  517TIP3    H223111   5.329   1.489   8.286 -0.5573  0.1553  0.2943
  518TIP3   OH223112   2.360   1.319   1.764  0.6183 -0.4615  0.4087
  518TIP3    H123113   2.449   1.332   1.798  0.0499 -1.4098  2.3629
  518TIP3    H223114   2.330   1.238   1.804 -0.5520 -1.0639 -1.5571
  519TIP3   OH223115   6.765   1.072   0.114 -0.8192 -0.1417 -0.1643
  519TIP3    H123116   6.742   1.153   0.069  1.9779  0.0419 -1.4176
  519TIP3    H223117   6.793   1.100   0.201 -2.6273 -0.1231  0.4539
  520TIP3   OH223118   0.337   3.358   8.069 -0.5294 -0.0671 -0.0289
  520TIP3    H123119   0.307   3.397   7.987 -1.9452  0.5121  0.7188
  520TIP3    H223120   0.372   3.432   8.120 -0.2393 -0.3139  0.1350
  521TIP3   OH223121   4.381   3.548   0.489 -0.1497 -0.2617  0.3651
  521TIP3    H123122   4.468   3.527   0.457 -0.3965 -2.0052  0.7341
  521TIP3    H223123   4.345   3.608   0.424  1.6214  1.2038  0.6555
  522TIP3   OH223124   0.914   4.603   8.204  0.1844 -0.0959 -0.0957
  522TIP3    H123125   0.837   4.621   8.259 -0.7419  0.7672 -1.6035
  522TIP3    H223126   0.975   4.674   8.223  0.8008 -0.9697  1.3614
  523TIP3   OH223127   6.355   1.809   1.516 -0.3403  0.0179  0.0218
  523TIP3    H123128   6.353   1.742   1.448  1.4892 -0.2413  0.1727
  523TIP3    H223129   6.370   1.891   1.469  2.3944 -0.3346  0.1305
  524TIP3   OH223130   1.580   1.968   2.106  0.5050  0.3240 -0.0436
  524TIP3    H123131   1.672   1.994   2.105  0.1892  1.4667 -0.9077
  524TIP3    H223132   1.548   1.989   2.018 -0.8116  0.7640  0.5237
  525TIP3   OH223133   2.848   5.053   1.812  0.5531  0.3382 -0.0643
  525TIP3    H123134   2.879   5.103   1.888 -0.3091 -0.2656  0.7026
  525TIP3    H223135   2.775   5.001   1.845 -1.3070  1.6823 -1.7709
  526TIP3   OH223136   5.493   2.789   1.305 -0.2758 -0.0402  0.4596
  526TIP3    H123137   5.557   2.744   1.359  0.4106 -0.2844 -0.5203
  526TIP3    H223138   5.408   2.754   1.333  0.1485 -0.9556  0.6384
  527TIP3   OH223139   2.640   0.295   8.780  0.1543  0.1293  0.5678
  527TIP3    H123140   2.592   0.346   8.845  2.0172  0.7521  1.5194
  527TIP3    H223141   2.732   0.306   8.803  0.8995  0.2668 -2.0864
  528TIP3   OH223142   4.297   2.092   1.778  0.5826 -0.1708  0.3027
  528TIP3    H123143   4.235   2.109   1.707  1.7543  0.1032 -0.6994
  528TIP3    H223144   4.242   2.075   1.855 -0.8098 -3.0746 -1.1760
  529TIP3   OH223145   4.932   1.862   8.444  0.3468  0.1463  0.2655
  529TIP3    H123146   4.936   1.835   8.352 -1.4931  0.6642 -0.0036
  529TIP3    H223147   5.014   1.829   8.482  0.9723 -0.4060 -1.4570
  530TIP3   OH223148   6.075   5.446   0.545  0.2461  0.7734  0.1134
  530TIP3    H123149   6.080   5.521   0.604  0.5640  0.2946  0.7044
  530TIP3    H223150   5.987   5.409   0.559  1.1876 -0.8888  2.2531
  531TIP3   OH223151   5.920   5.832   0.972  1.1146 -0.1692  0.6710
  531TIP3    H123152   5.940   5.803   1.061  2.4381 -2.1295 -0.2159
  531TIP3    H223153   5.855   5.769   0.941  0.5425  0.5989  0.2780
  532TIP3   OH223154   4.215   3.143   1.869 -0.2061  0.0657 -0.1072
  532TIP3    H123155   4.212   3.184   1.955  2.2185 -1.5467  0.8455
  532TIP3    H223156   4.129   3.102   1.858 -1.3330  2.0968  0.5215
  533TIP3   OH223157   2.813   1.279   2.152  0.4424  0.1046  0.6548
  533TIP3    H123158   2.817   1.238   2.238 -0.5491 -0.1538  0.5933
  533TIP3    H223159   2.786   1.209   2.092  0.3844  0.4540  0.2647
  534TIP3   OH223160   1.328   0.511   1.790  0.1431  0.5140 -0.3350
  534TIP3    H123161   1.365   0.567   1.722  0.3749  1.0378  0.2135
  534TIP3    H223162   1.234   0.525   1.783  0.0846 -0.2711 -1.2599
  535TIP3   OH223163   4.318   2.951   8.644 -0.1100 -0.2282 -0.1913
  535TIP3    H123164   4.264   2.921   8.570  0.3767 -0.9821 -0.2502
  535TIP3    H223165   4.258   3.004   8.697 -1.5445 -2.6651  0.8218
  536TIP3   OH223166   0.624   0.288   1.993  0.0300  0.2613  0.1223
  536TIP3    H123167   0.641   0.247   2.077  0.0362  0.1884  0.0851
  536TIP3    H223168   0.536   0.326   2.002 -0.8196 -1.4355 -0.4953
  537TIP3   OH223169   4.654   1.225   8.329 -0.0934 -0.3793  0.6670
  537TIP3    H123170   4.743   1.192   8.343 -0.0410  0.1204  1.6145
  537TIP3    H223171   4.598   1.159   8.369 -0.1617 -0.7385 -0.0095
  538TIP3   OH223172   2.716   2.609   8.735 -0.1300 -0.7637 -0.1083
  538TIP3    H123173   2.673   2.668   8.797 -1.4534 -0.2016 -1.4689
  538TIP3    H223174   2.783   2.663   8.693 -1.3795 -0.1204 -1.3953
  539TIP3   OH223175   6.245   2.140   1.852  0.6134  0.0134 -0.4520
  539TIP3    H123176   6.300   2.104   1.921 -0.2152 -1.8606 -0.6728
  539TIP3    H223177   6.156   2.115   1.877  0.2027  0.1401 -1.6978
  540TIP3   OH223178   0.503   4.890   1.978  0.1047  0.2746  0.6270
  540TIP3    H123179   0.543   4.976   1.991 -0.5251  0.2073  4.2321
  540TIP3    H223180   0.575   4.828   1.989 -0.0804  0.2923  2.1695
  541TIP3   OH223181   2.442   4.983   8.070 -0.1479 -0.1861 -0.0315
  541TIP3    H123182   2.480   5.071   8.072 -0.4622 -0.0460 -0.1671
  541TIP3    H223183   2.513   4.927   8.037  0.1805 -0.0526  0.4235
  542TIP3   OH223184   6.091   1.758   1.755 -0.1537 -0.1158  0.6400
  542TIP3    H123185   6.045   1.715   1.827 -0.0835 -0.4469  0.4860
  542TIP3    H223186   6.114   1.688   1.695 -1.4211  0.3193 -0.3966
  543TIP3   OH223187   1.777   0.231   1.870  0.5228 -0.3325 -0.2500
  543TIP3    H123188   1.688   0.260   1.891  0.5964  0.8367 -1.4435
  543TIP3    H223189   1.826   0.245   1.951  0.6816  3.5953 -0.8435
  544TIP3   OH223190   3.550   1.981   1.105 -0.1558 -0.6867 -0.1766
  544TIP3    H123191   3.618   1.914   1.107 -1.3225 -2.0110 -1.8526
  544TIP3    H223192   3.493   1.959   1.179  0.8820  0.1360  0.9293
  545TIP3   OH223193   3.746   1.629   3.702 -0.0141 -0.0497 -0.7156
  545TIP3    H123194   3.673   1.623   3.640 -1.1212  0.2451  0.5082
  545TIP3    H223195   3.776   1.719   3.696 -0.8365  0.2742 -0.0542
  546TIP3   OH223196   2.851   0.583   0.186 -0.1024  0.3438 -0.4520
  546TIP3    H123197   2.829   0.605   0.096  0.2839  0.4610 -0.5184
  546TIP3    H223198   2.780   0.622   0.238 -0.1513  0.5557 -0.6773
  547TIP3   OH223199   4.922   6.358   1.579 -0.1612  0.0900 -0.1144
  547TIP3    H123200   4.946   6.446   1.550  2.5077  0.0460  1.6788
  547TIP3    H223201   4.833   6.367   1.612 -0.7948  1.5541 -2.0153
  548TIP3   OH223202   5.267   4.258   8.043 -0.2041  0.2462 -0.3780
  548TIP3    H123203   5.175   4.270   8.065  0.2570  2.5535  0.5745
  548TIP3    H223204   5.266   4.220   7.956 -2.0541 -0.0318 -0.2706
  549TIP3   OH223205   0.448   0.185   2.991 -0.2143 -0.4594 -0.3435
  549TIP3    H123206   0.484   0.097   2.983 -1.5710 -1.1036  0.2399
  549TIP3    H223207   0.369   0.183   2.936 -1.4360 -0.3103  1.3389
  550TIP3   OH223208   6.103   2.857   8.553 -0.4095 -0.2019  0.0198
  550TIP3    H123209   6.146   2.940   8.575  0.1590 -1.1683  2.9156
  550TIP3    H223210   6.136   2.835   8.466  1.7615  1.1267  0.4426
  551TIP3   OH223211   2.381   5.674   1.820 -0.8024  0.2257 -0.7677
  551TIP3    H123212   2.392   5.632   1.905 -0.2685  0.1222 -0.8839
  551TIP3    H223213   2.468   5.708   1.798 -1.0549  0.7149 -1.0273
  552TIP3   OH223214   6.408   2.796   2.262  0.6224 -0.1041  0.3930
  552TIP3    H123215   6.497   2.788   2.229  0.8802  3.3213 -0.1220
  552TIP3    H223216   6.364   2.855   2.200 -0.7859  1.4169  2.6682
  553TIP3   OH223217   1.056   0.584   7.580  0.4351 -0.5806 -0.1776
  553TIP3    H123218   1.047   0.570   7.486  2.4255 -3.1576 -0.0829
  553TIP3    H223219   1.151   0.588   7.595  0.1618 -0.2963  1.7428
  554TIP3   OH223220   4.404   3.225   0.608  0.0334 -0.2822  0.1376
  554TIP3    H123221   4.327   3.174   0.634 -0.0023  0.0466  0.6932
  554TIP3    H223222   4.401   3.303   0.664  0.9340 -0.4028  0.3661
  555TIP3   OH223223   4.124   5.575   1.496 -0.3404 -0.6584 -0.5275
  555TIP3    H123224   4.148   5.612   1.411  2.5989 -0.8520  0.1132
  555TIP3    H223225   4.166   5.632   1.560 -0.5426 -1.8375  0.7012
  556TIP3   OH223226   4.127   0.325   0.023  0.1605  0.6502 -0.0413
  556TIP3    H123227   4.091   0.286  -0.057  2.9187 -0.6531 -0.7538
  556TIP3    H223228   4.155   0.413  -0.003 -1.7224  1.4473  0.3758
  557TIP3   OH223229   6.462   3.295   7.683  0.4317  0.5224 -0.1064
  557TIP3    H123230   6.548   3.278   7.643 -0.4223  0.1925 -1.9235
  557TIP3    H223231   6.477   3.284   7.777  2.1379 -0.6031 -0.4535
  558TIP3   OH223232   3.425   3.023   1.883  0.1739 -0.2176  0.1495
  558TIP3    H123233   3.514   3.017   1.848  0.5365 -0.9073  1.1401
  558TIP3    H223234   3.414   3.115   1.904  0.8031 -0.1855  0.3657
  559TIP3   OH223235   0.350   0.022   0.842  0.4821 -0.1006  0.2319
  559TIP3    H123236   0.443   0.038   0.828  0.3261  0.1916 -0.5522
  559TIP3    H223237   0.318   0.103   0.882 -0.3764  1.9683 -4.0624
  560TIP3   OH223238   4.582   0.171   2.912  0.2538 -0.0989  0.1510
  560TIP3    H123239   4.615   0.249   2.957  1.1810 -1.0611  1.2037
  560TIP3    H223240   4.498   0.154   2.955  0.6699 -0.4373  0.8408
  561TIP3   OH223241   1.643   1.708   7.451  0.0661 -0.0833 -0.1496
  561TIP3    H123242   1.585   1.676   7.381 -2.5626  2.7362  0.5234
  561TIP3    H223243   1.644   1.637   7.515 -1.0638 -0.9904 -1.0797
  562TIP3   OH223244   0.848   4.087   1.850  0.8016 -0.2707 -0.4018
  562TIP3    H123245   0.866   4.177   1.820  0.0485 -0.8121 -2.6187
  562TIP3    H223246   0.788   4.099   1.924 -0.1108  1.0386 -1.3021
  563TIP3   OH223247   5.359   3.251   2.009 -0.4352  0.2421  0.2510
  563TIP3    H123248   5.336   3.341   1.984 -0.1302  0.6753  1.4576
  563TIP3    H223249   5.424   3.225   1.945  1.1743  1.7435  1.1684
  564TIP3   OH223250   5.498   2.840   1.614 -0.4759 -0.5489 -0.4350
  564TIP3    H123251   5.475   2.760   1.662  1.3127 -0.1654  1.1664
  564TIP3    H223252   5.579   2.818   1.568  1.1899  0.8273  1.6232
  565TIP3   OH223253   4.036   0.771   8.573  0.0433 -0.1941  0.1194
  565TIP3    H123254   4.034   0.728   8.658  0.0425  1.0129  0.7490
  565TIP3    H223255   3.999   0.858   8.589  0.6729  0.2986 -0.9740
  566TIP3   OH223256   4.102   2.698   7.363 -0.6364  0.1806  0.3481
  566TIP3    H123257   4.077   2.705   7.456  2.1078 -0.6346  1.2413
  566TIP3    H223258   4.110   2.604   7.347 -0.3266  0.3425 -0.4833
  567TIP3   OH223259   4.907   4.708   1.930 -0.1166  0.0825  0.1560
  567TIP3    H123260   4.991   4.721   1.887 -0.3853  0.1602 -0.3576
  567TIP3    H223261   4.864   4.639   1.879  0.2587 -1.0547  1.3427
  568TIP3   OH223262   0.145   5.077   7.843  0.4190  0.0153  0.0355
  568TIP3    H123263   0.153   4.999   7.788  0.6320  0.7355 -0.9979
  568TIP3    H223264   0.228   5.081   7.891  1.7991  1.2888 -2.2644
  569TIP3   OH223265   6.179   1.255   2.690  0.1741  0.2528 -0.4142
  569TIP3    H123266   6.212   1.201   2.618  2.1176  0.7943  0.0042
  569TIP3    H223267   6.162   1.340   2.651  0.3810  0.2925 -0.4213
  570TIP3   OH223268   3.611   1.559   7.297 -0.3175 -0.5670  0.2572
  570TIP3    H123269   3.564   1.547   7.380  0.7419 -0.4239  0.8973
  570TIP3    H223270   3.580   1.643   7.264  1.7245  1.1017  2.2435
  571TIP3   OH223271   4.476   5.447   0.476 -0.7650 -0.2594 -0.0656
  571TIP3    H123272   4.520   5.505   0.538  1.2963 -1.0783 -0.6392
  571TIP3    H223273   4.384   5.452   0.499 -0.6151  2.7232  0.2989
  572TIP3   OH223274   3.763   0.671   0.440  0.2647  0.7174 -0.1509
  572TIP3    H123275   3.758   0.745   0.500  1.7870  0.0119  0.9203
  572TIP3    H223276   3.715   0.601   0.485  0.9501  0.3441  0.0099
  573TIP3   OH223277   1.124   3.588   1.438  0.0696  0.2072 -0.8852
  573TIP3    H123278   1.125   3.508   1.385 -0.2853 -0.5963  0.2940
  573TIP3    H223279   1.043   3.633   1.412 -0.4524 -0.5241 -0.5443
  574TIP3   OH223280   4.577   6.276   7.744 -0.1675 -0.0147  0.0931
  574TIP3    H123281   4.589   6.228   7.826  0.4991 -1.8167 -1.0092
  574TIP3    H223282   4.645   6.343   7.745 -1.9291  1.9266  2.2597
  575TIP3   OH223283   5.738   2.781   1.507 -0.5955 -0.5509  0.5963
  575TIP3    H123284   5.807   2.812   1.449  0.2450  1.6057  2.5778
  575TIP3    H223285   5.784   2.741   1.580 -1.4710 -0.2336  1.3456
  576TIP3   OH223286   3.906   4.937   8.819 -0.0327 -0.1257 -0.6486
  576TIP3    H123287   3.840   4.905   8.758  0.9277  0.4447 -2.0259
  576TIP3    H223288   3.952   4.858   8.849 -0.2224 -0.3728 -1.0090
  577TIP3   OH223289   5.072   4.159   0.957  0.4946  0.0349  0.1413
  577TIP3    H123290   5.064   4.223   1.027  0.1851  0.4645 -0.2782
  577TIP3    H223291   5.149   4.108   0.979 -1.2445 -1.8508  2.4193
  578TIP3   OH223292   6.527   2.763   2.974 -0.6198 -0.4173 -0.0161
  578TIP3    H123293   6.591   2.731   3.038 -1.9752 -2.9538  0.1651
  578TIP3    H223294   6.514   2.855   2.998  1.8989 -0.1833  0.7661
  579TIP3   OH223295   4.368   1.236   0.679  0.3921  0.1190 -0.1709
  579TIP3    H123296   4.442   1.261   0.624 -0.6025  0.9885 -1.1616
  579TIP3    H223297   4.290   1.255   0.625 -0.6173  1.0033  1.5254
  580TIP3   OH223298   1.285   4.347   2.540 -0.3243  0.1857 -0.3393
  580TIP3    H123299   1.222   4.356   2.469 -0.7422  3.5584  0.3012
  580TIP3    H223300   1.239   4.297   2.607 -0.2265 -2.2899 -1.9758
  581TIP3   OH223301   0.335   3.078   2.169 -0.0254  0.5796  0.5105
  581TIP3    H123302   0.267   3.116   2.114 -1.4959 -1.5517  0.7318
  581TIP3    H223303   0.391   3.030   2.108 -0.3051  0.1420  0.5874
  582TIP3   OH223304   1.883   2.294   8.652  0.2446 -0.7363 -0.0840
  582TIP3    H123305   1.923   2.377   8.626 -1.4234  0.3679  0.7321
  582TIP3    H223306   1.911   2.232   8.585  2.3711  0.2174 -0.1485
  583TIP3   OH223307   2.017   0.745   0.597  0.0379 -0.0823  0.3554
  583TIP3    H123308   2.056   0.763   0.683 -0.2948  0.8199  0.3259
  583TIP3    H223309   1.986   0.830   0.567 -1.1778 -0.6353 -0.0096
  584TIP3   OH223310   4.422   1.398   7.581 -0.0056 -0.0354  0.2731
  584TIP3    H123311   4.452   1.487   7.559  0.5347 -0.0644  0.8703
  584TIP3    H223312   4.338   1.390   7.535  0.2643  0.5318 -0.3501
  585TIP3   OH223313   5.771   5.573   0.292  0.7738  0.1412  0.0643
  585TIP3    H123314   5.712   5.636   0.335 -0.2059 -1.3144  0.9352
  585TIP3    H223315   5.854   5.582   0.338  0.0039 -0.7264  1.6951
  586TIP3   OH223316   4.986   5.147   0.548 -0.0715 -0.1487 -0.2673
  586TIP3    H123317   5.065   5.165   0.497  0.6276  0.5769  1.0260
  586TIP3    H223318   4.951   5.067   0.510  1.6350 -0.8375 -0.4896
  587TIP3   OH223319   2.222   2.763   1.122  0.2579  0.3383 -0.0306
  587TIP3    H123320   2.303   2.808   1.098  1.7125 -1.4353  1.2730
  587TIP3    H223321   2.180   2.822   1.186  1.5182  0.4173  0.7520
  588TIP3   OH223322   3.908   4.808   0.892 -0.1791  0.0837  0.2187
  588TIP3    H123323   3.877   4.754   0.820 -0.8934 -0.1218  0.6724
  588TIP3    H223324   3.901   4.898   0.859 -0.5209 -0.0082  0.0375
  589TIP3   OH223325   4.325   1.507   2.335  0.3409  0.7260 -0.5713
  589TIP3    H123326   4.392   1.537   2.396  1.3821 -2.1075 -0.1649
  589TIP3    H223327   4.273   1.585   2.315  2.1699  2.4683  1.1166
  590TIP3   OH223328   0.041   6.635   1.457  0.4074  0.1461 -0.0108
  590TIP3    H123329   0.100   6.565   1.428  0.1271 -0.4824  0.8806
  590TIP3    H223330  -0.033   6.589   1.496  0.4126  0.9438  0.9713
  591TIP3   OH223331   2.725   3.810   7.024  0.4581 -0.5013  0.0067
  591TIP3    H123332   2.691   3.865   7.094 -1.9768  1.1216 -2.2308
  591TIP3    H223333   2.815   3.840   7.010  0.0574  1.0810  0.6240
  592TIP3   OH223334   3.546   1.843   0.814 -0.5587  0.5387  0.0927
  592TIP3    H123335   3.629   1.850   0.767 -1.4700 -1.0591 -1.8664
  592TIP3    H223336   3.545   1.754   0.849 -0.5066  1.2617  2.1048
  593TIP3   OH223337   4.281   2.205   8.327  0.0888 -0.1585  0.5461
  593TIP3    H123338   4.229   2.285   8.341  0.8144  0.3116  0.6489
  593TIP3    H223339   4.359   2.219   8.382  0.7612 -0.4225 -0.3338
  594TIP3   OH223340   3.994   0.849   2.203 -0.1904  0.1488  0.3915
  594TIP3    H123341   4.036   0.858   2.117 -4.1269  3.2441 -1.5304
  594TIP3    H223342   3.942   0.769   2.196  0.8591 -0.5872  0.6671
  595TIP3   OH223343   5.211   3.611   1.239 -0.0406  0.1188  0.1559
  595TIP3    H123344   5.125   3.649   1.221  0.3428  1.7801  1.6150
  595TIP3    H223345   5.265   3.639   1.165 -0.4399  0.1418 -0.1307
  596TIP3   OH223346   4.024   4.658   2.279  0.1442 -0.8332  0.0627
  596TIP3    H123347   4.026   4.634   2.186 -0.3374 -1.0234  0.0999
  596TIP3    H223348   4.098   4.717   2.290 -1.2286  1.2185 -1.0127
  597TIP3   OH223349   0.023   0.626   8.895  0.1055  0.3248  0.0750
  597TIP3    H123350   0.001   0.600   8.806 -1.2746  0.0258  0.4699
  597TIP3    H223351  -0.032   0.570   8.950  1.6080 -0.1431  1.1528
  598TIP3   OH223352   3.040   2.495   1.197 -0.4948  0.6622  0.5358
  598TIP3    H123353   3.080   2.509   1.112  0.7161  2.6599  1.3589
  598TIP3    H223354   2.953   2.535   1.190 -1.5477 -1.6129 -0.5289
  599TIP3   OH223355   3.974   4.309   7.329 -0.0802 -0.3741  0.0087
  599TIP3    H123356   3.956   4.271   7.415  0.5108  1.6785  1.1007
  599TIP3    H223357   4.061   4.346   7.337 -0.1178  0.0775 -1.4146
  600TIP3   OH223358   3.745   0.917   2.738 -0.0410  0.0241 -0.1702
  600TIP3    H123359   3.811   0.979   2.708  0.2377 -0.5172 -0.6873
  600TIP3    H223360   3.726   0.944   2.828  1.5233 -0.3390  0.2947
  601TIP3   OH223361   5.957   5.267   0.069 -0.0293 -0.1765  0.8197
  601TIP3    H123362   5.870   5.298   0.093  0.2581  1.6978 -0.3561
  601TIP3    H223363   6.017   5.324   0.116  0.5285  2.4451 -2.6695
  602TIP3   OH223364   3.302   5.163   0.472 -0.3906  0.2096  0.8121
  602TIP3    H123365   3.275   5.166   0.564  0.7945  1.6497  1.1474
  602TIP3    H223366   3.392   5.131   0.475  0.3638  2.1431  0.3667
  603TIP3   OH223367   4.393   5.396   7.306  0.0089  0.5898  0.1750
  603TIP3    H123368   4.312   5.431   7.345  0.1379  0.7770  0.2742
  603TIP3    H223369   4.458   5.405   7.375  0.2157  0.8315 -0.0492
  604TIP3   OH223370   4.822   2.059   2.850 -0.1116 -0.2480  0.4815
  604TIP3    H123371   4.841   2.152   2.866 -1.2962  0.4792 -1.8795
  604TIP3    H223372   4.758   2.036   2.918  1.4399  0.1266  2.1418
  605TIP3   OH223373   4.843   3.239   0.452 -0.3044 -0.0551 -0.2384
  605TIP3    H123374   4.911   3.204   0.394 -0.5457 -0.4330 -0.2924
  605TIP3    H223375   4.811   3.316   0.406  1.6941  1.5323  0.8423
  606TIP3   OH223376   5.123   6.408   0.322 -0.0338 -0.2995 -0.1901
  606TIP3    H123377   5.112   6.340   0.389 -2.6398 -0.8445 -1.0485
  606TIP3    H223378   5.189   6.371   0.262  0.0137 -1.2024  0.3908
  607TIP3   OH223379   2.377   5.793   2.400  0.3132 -0.4314 -0.2351
  607TIP3    H123380   2.462   5.814   2.439  0.7721 -2.1276 -0.2766
  607TIP3    H223381   2.331   5.878   2.396  1.7009  0.3833  0.4697
  608TIP3   OH223382   4.177   3.637   2.020  0.2602 -0.4001 -0.0086
  608TIP3    H123383   4.263   3.611   1.986  0.1944  1.9108 -2.2745
  608TIP3    H223384   4.198   3.703   2.087  0.2684 -0.9889  0.5750
  609TIP3   OH223385   2.471   3.954   1.068 -0.5141  0.0104 -0.7825
  609TIP3    H123386   2.518   3.871   1.073  1.9863  1.3932  1.6585
  609TIP3    H223387   2.457   3.979   1.160 -2.4299  1.6582 -1.4572
  610TIP3   OH223388   3.457   5.779   0.246  0.2329 -0.3473 -0.0381
  610TIP3    H123389   3.374   5.732   0.235 -0.0740  0.4897 -1.5836
  610TIP3    H223390   3.438   5.868   0.218  1.7402 -0.2150 -0.7449
  611TIP3   OH223391   0.364   1.112   7.707 -0.0849  1.3019  0.6822
  611TIP3    H123392   0.350   1.180   7.641  1.9971  1.5246  0.3950
  611TIP3    H223393   0.312   1.037   7.676  1.1005  1.2806 -1.4489
  612TIP3   OH223394   4.768   3.077   7.637  0.0784 -0.3350  0.6934
  612TIP3    H123395   4.677   3.056   7.659 -0.4309  1.0550  0.0007
  612TIP3    H223396   4.761   3.132   7.560  1.4354  0.9944  1.4836
  613TIP3   OH223397   1.058   0.084   8.211 -0.2993  0.0201 -0.0676
  613TIP3    H123398   1.070   0.179   8.214 -0.1962  0.0260 -0.5095
  613TIP3    H223399   1.144   0.050   8.186 -0.3529 -0.1835  0.0253
  614TIP3   OH223400   3.048   5.882   8.422 -0.8151 -0.0741  0.5380
  614TIP3    H123401   3.113   5.938   8.379 -1.8623  1.9768  1.5325
  614TIP3    H223402   3.042   5.805   8.365  2.2749 -0.2539  0.2844
  615TIP3   OH223403   2.004   5.948   2.563 -0.1646 -0.9802 -0.1262
  615TIP3    H123404   1.945   6.005   2.513  0.2136 -0.3221  0.1564
  615TIP3    H223405   2.035   6.004   2.635  2.0278 -0.7749 -1.1433
  616TIP3   OH223406   1.285   5.076   8.282  0.0150  0.0170 -0.0654
  616TIP3    H123407   1.241   5.131   8.216 -1.3196 -0.1089  0.6821
  616TIP3    H223408   1.236   4.994   8.281 -0.2585  0.1404  1.3330
  617TIP3   OH223409   0.739   2.369   8.896  0.3185 -0.2522  0.1450
  617TIP3    H123410   0.707   2.299   8.839 -0.4191 -1.4782  1.9828
  617TIP3    H223411   0.663   2.427   8.908 -0.2389 -1.2186  1.6149
  618TIP3   OH223412   6.664   5.168   7.869 -0.4515 -0.1255  0.2600
  618TIP3    H123413   6.649   5.136   7.780 -0.3176 -1.1974  0.6107
  618TIP3    H223414   6.749   5.133   7.894 -2.0926 -3.2688  2.2123
  619TIP3   OH223415   3.014   4.578   0.921 -0.1146 -0.1314  0.2021
  619TIP3    H123416   2.949   4.512   0.894  0.0139  0.2193 -1.0492
  619TIP3    H223417   3.098   4.537   0.902 -0.0249  0.1783 -0.0935
  620TIP3   OH223418   4.896   3.199   2.566  0.1055  0.1137 -0.6967
  620TIP3    H123419   4.967   3.181   2.504  0.3846 -2.0404  0.1606
  620TIP3    H223420   4.857   3.281   2.535  2.7738  1.2329 -1.3338
  621TIP3   OH223421   4.791   1.572   0.941 -0.2065 -0.5914  0.3841
  621TIP3    H123422   4.819   1.553   1.031  2.2850 -1.1588 -0.4127
  621TIP3    H223423   4.778   1.667   0.939  0.7864 -0.4178  1.1118
  622TIP3   OH223424   5.990   2.434   0.432 -0.0453  0.1789  0.0512
  622TIP3    H123425   6.082   2.442   0.406 -0.0483  1.2542  0.3175
  622TIP3    H223426   5.989   2.365   0.498  0.2909 -1.0626 -1.1694
  623TIP3   OH223427   0.829   4.140   0.917  0.2957 -0.5371  0.5435
  623TIP3    H123428   0.899   4.200   0.891 -0.5184  0.3352  0.3228
  623TIP3    H223429   0.756   4.162   0.860 -0.5633 -0.5861  1.5865
  624TIP3   OH223430   6.451   6.768   7.429 -0.7651  0.0634 -0.1936
  624TIP3    H123431   6.374   6.755   7.483 -0.5988 -0.0941  0.0093
  624TIP3    H223432   6.462   6.863   7.423  0.3905  0.1142  1.7581
  625TIP3   OH223433   6.722   1.952   2.637  0.1204  0.9197 -0.2017
  625TIP3    H123434   6.707   1.992   2.722  1.3319  1.3345 -0.1614
  625TIP3    H223435   6.676   1.868   2.641  2.8114 -0.6018  2.0929
  626TIP3   OH223436   0.832   6.486   0.009 -0.2747  0.1586 -0.1627
  626TIP3    H123437   0.839   6.391   0.019  0.7657  0.3752  1.6281
  626TIP3    H223438   0.902   6.509  -0.052  1.0332 -0.0148  1.2131
  627TIP3   OH223439   5.841   2.638   8.225 -0.3554  0.3419 -0.0382
  627TIP3    H123440   5.748   2.616   8.233  0.1747 -1.7913  0.7606
  627TIP3    H223441   5.856   2.641   8.130 -0.9992 -0.4492 -0.1792
  628TIP3   OH223442   2.286   4.555   8.279  0.1457 -0.4062  0.4134
  628TIP3    H123443   2.288   4.479   8.337 -0.9815 -1.6946 -1.1500
  628TIP3    H223444   2.378   4.573   8.259  0.4157 -2.3863 -0.4125
  629TIP3   OH223445   0.012   1.982   1.917  0.1559 -0.1138 -0.4945
  629TIP3    H123446   0.101   1.947   1.912 -0.0428 -0.8998  0.8758
  629TIP3    H223447  -0.014   1.997   1.826  2.1656  1.4413 -0.8861
  630TIP3   OH223448   2.975   0.002   2.087  0.0278  0.1512 -0.1151
  630TIP3    H123449   3.047  -0.042   2.134  2.4450  2.2646 -1.6273
  630TIP3    H223450   2.974  -0.040   2.001 -0.4310  0.2794 -0.1728
  631TIP3   OH223451   5.916   2.944   1.291  0.3760 -0.7086 -0.4180
  631TIP3    H123452   5.836   2.921   1.243 -0.2479 -0.4805  0.4774
  631TIP3    H223453   5.907   3.038   1.309  0.4579 -0.8463  0.3802
  632TIP3   OH223454   6.288   4.235   1.558 -0.3883  0.8694 -0.3765
  632TIP3    H123455   6.252   4.196   1.478  0.8471  1.8250 -1.4159
  632TIP3    H223456   6.248   4.322   1.562 -2.9381 -0.2404  1.8086
  633TIP3   OH223457   4.358   4.663   3.473 -0.0431  0.0861  0.2625
  633TIP3    H123458   4.358   4.569   3.454  1.3698  0.5714 -2.7656
  633TIP3    H223459   4.277   4.696   3.433 -0.4775  0.1868  1.2110
  634TIP3   OH223460   5.042   0.543   2.307 -0.6261 -0.1937 -0.5360
  634TIP3    H123461   5.111   0.481   2.281 -0.4629 -0.5125  0.6061
  634TIP3    H223462   5.075   0.583   2.387 -0.8144  1.2607 -1.1659
  635TIP3   OH223463   4.729   0.654   0.649  0.0699  0.5079  1.3387
  635TIP3    H123464   4.761   0.712   0.580  0.8009 -0.0875  1.1718
  635TIP3    H223465   4.807   0.607   0.680 -0.4760 -0.2347  1.6143
  636TIP3   OH223466   3.350   6.062   7.748  0.0269  0.6208  0.2502
  636TIP3    H123467   3.325   6.006   7.674  0.9114 -1.6920  1.5925
  636TIP3    H223468   3.266   6.097   7.779 -0.3407  1.9632 -1.9756
  637TIP3   OH223469   4.967   6.576   1.312 -0.0076  0.0029  0.5680
  637TIP3    H123470   5.002   6.653   1.357  1.3897 -0.5416  0.4720
  637TIP3    H223471   5.040   6.544   1.258 -0.9335 -0.6926 -0.3254
  638TIP3   OH223472   4.570   4.954   1.760 -0.0632  0.5753 -0.4895
  638TIP3    H123473   4.632   4.996   1.819  0.7440  0.3035 -1.1248
  638TIP3    H223474   4.484   4.981   1.792  0.3897  1.2301  0.2017
  639TIP3   OH223475   1.159   5.866   2.070 -0.6556 -0.4094  0.3037
  639TIP3    H123476   1.079   5.919   2.065 -1.0048 -1.0108 -0.7395
  639TIP3    H223477   1.175   5.857   2.164 -0.6738  1.3993  0.5191
  640TIP3   OH223478   3.705   3.143   3.235  0.6355 -0.2652  0.0866
  640TIP3    H123479   3.704   3.231   3.273  0.7864 -0.2003 -0.0578
  640TIP3    H223480   3.771   3.096   3.287  1.6217  0.1295 -0.7651
  641TIP3   OH223481   0.368   3.045   7.758  0.2199  0.5767 -0.1192
  641TIP3    H123482   0.292   3.087   7.719  0.9860  0.0387 -2.2968
  641TIP3    H223483   0.437   3.110   7.753  0.3428  0.4816  0.2998
  642TIP3   OH223484   2.888   0.156   2.336 -0.3954  0.3647 -0.1109
  642TIP3    H123485   2.960   0.196   2.384  0.3833 -1.0673 -0.0071
  642TIP3    H223486   2.924   0.140   2.249 -0.6443 -0.1906 -0.1150
  643TIP3   OH223487   4.749   3.406   8.337  0.1055 -0.6781 -0.3710
  643TIP3    H123488   4.753   3.358   8.419 -0.4438  0.2378  0.2163
  643TIP3    H223489   4.677   3.367   8.289 -0.7235 -0.0801  0.3572
  644TIP3   OH223490   1.418   3.054   2.083  0.2783  0.0330 -0.3572
  644TIP3    H123491   1.333   3.096   2.068 -0.0641 -0.3889  0.3544
  644TIP3    H223492   1.447   3.029   1.995  1.3013  3.2165 -1.0466
  645TIP3   OH223493   5.873   4.872   8.836  0.5851  0.0786  0.2193
  645TIP3    H123494   5.819   4.883   8.914 -0.7748 -0.0699 -0.6724
  645TIP3    H223495   5.908   4.959   8.819 -1.1843  0.7073 -0.4510
  646TIP3   OH223496   4.435   4.913   0.876 -0.0081 -0.0647  0.7787
  646TIP3    H123497   4.410   4.971   0.805  1.2855 -0.4389 -0.0289
  646TIP3    H223498   4.519   4.948   0.908  0.6223 -1.2632  0.4990
  647TIP3   OH223499   2.922   1.424   1.829 -0.9432  0.4154  0.4507
  647TIP3    H123500   2.961   1.460   1.749 -1.7202  1.0554  0.3533
  647TIP3    H223501   2.873   1.497   1.866 -0.4501  0.1801  1.6132
  648TIP3   OH223502   5.269   3.787   2.910 -0.3636 -0.3568  0.4340
  648TIP3    H123503   5.347   3.736   2.888  0.0121  1.4123 -3.0041
  648TIP3    H223504   5.197   3.724   2.905  0.5857 -1.7143  2.3051
  649TIP3   OH223505   6.697   4.013   1.185 -0.2491 -0.2632  0.1189
  649TIP3    H123506   6.637   4.066   1.132 -1.5372 -1.6248  0.1425
  649TIP3    H223507   6.645   3.989   1.263  0.5128 -1.0182  0.4077
  650TIP3   OH223508   4.022   1.507   2.443  0.1331 -0.3199 -0.3801
  650TIP3    H123509   3.970   1.501   2.523  2.2959  0.9256  1.2331
  650TIP3    H223510   4.040   1.601   2.433  0.2031 -0.4907 -2.1477
  651TIP3   OH223511   1.991   0.142   8.183 -0.0950 -0.0311  0.3385
  651TIP3    H123512   1.974   0.232   8.210 -2.3288 -0.6533  1.3124
  651TIP3    H223513   1.929   0.126   8.112  1.1317 -0.4527 -0.6616
  652TIP3   OH223514   3.261   5.028   8.044 -1.0121  0.0388 -0.1413
  652TIP3    H123515   3.210   5.037   7.964 -1.4986 -0.8687  0.0500
  652TIP3    H223516   3.316   5.106   8.047 -1.6602  0.5352 -0.8762
  653TIP3   OH223517   5.691   1.246   8.742 -0.7205 -0.6568  0.2058
  653TIP3    H123518   5.723   1.216   8.827  1.3259 -0.7485 -0.5639
  653TIP3    H223519   5.730   1.186   8.679 -0.0760  0.9937 -1.0154
  654TIP3   OH223520   0.526   6.679   8.569  0.0071  0.0941 -0.2506
  654TIP3    H123521   0.550   6.726   8.489 -0.6407  2.1244  0.6772
  654TIP3    H223522   0.444   6.635   8.547  1.1160 -1.4710 -1.4313
  655TIP3   OH223523   3.778   3.773   2.079 -0.8075  0.0086  0.4527
  655TIP3    H123524   3.847   3.707   2.073 -0.7465  0.1080 -0.0340
  655TIP3    H223525   3.823   3.852   2.109 -0.6503  0.1494 -0.1359
  656TIP3   OH223526   5.792   2.127   1.767  0.3191  0.2767 -0.4860
  656TIP3    H123527   5.702   2.160   1.765  0.4843  0.7586 -3.2729
  656TIP3    H223528   5.846   2.205   1.755  1.0403 -0.2218 -0.5283
  657TIP3   OH223529   1.681   1.547   0.855 -0.1014  0.5764  0.0670
  657TIP3    H123530   1.675   1.452   0.842  1.1509  0.5455 -0.3559
  657TIP3    H223531   1.740   1.558   0.930 -1.0004  1.0115  0.7364
  658TIP3   OH223532   4.780   5.483   1.223 -0.7938  0.1918 -0.1769
  658TIP3    H123533   4.841   5.435   1.167 -0.8733  1.3124 -1.2750
  658TIP3    H223534   4.712   5.513   1.163 -1.3356  0.7177  0.6832
  659TIP3   OH223535   4.505   3.641   1.567 -0.8657  0.0072 -0.2061
  659TIP3    H123536   4.513   3.546   1.559 -1.3299 -0.0977  0.4788
  659TIP3    H223537   4.541   3.660   1.654 -0.8475  0.4500 -0.3095
  660TIP3   OH223538   5.474   4.734   0.308 -0.3318 -0.1153 -0.6010
  660TIP3    H123539   5.559   4.743   0.351 -0.5344  2.3248 -0.6227
  660TIP3    H223540   5.457   4.819   0.269 -2.8994 -0.4652 -0.4131
  661TIP3   OH223541   0.677   3.932   1.705 -0.1465 -0.0425  0.5571
  661TIP3    H123542   0.753   3.987   1.726  0.8833 -0.5374 -1.5919
  661TIP3    H223543   0.606   3.994   1.690  1.4591  1.1212 -3.8654
  662TIP3   OH223544   0.800   5.519   2.684  0.1035 -0.0589 -0.5426
  662TIP3    H123545   0.890   5.490   2.676  0.3286  1.1046 -3.3108
  662TIP3    H223546   0.788   5.580   2.611 -3.1210 -0.7005 -0.6950
  663TIP3   OH223547   5.505   0.781   2.069 -0.3169  0.4120  0.0902
  663TIP3    H123548   5.421   0.825   2.077 -0.7293 -0.0183 -1.5760
  663TIP3    H223549   5.518   0.769   1.975  0.6108 -1.4265  0.3962
  664TIP3   OH223550   1.668   0.717   2.089 -0.6866  0.4764  0.1989
  664TIP3    H123551   1.641   0.703   2.180 -0.2857 -1.4893  0.0544
  664TIP3    H223552   1.620   0.650   2.039  0.6088  0.2116 -0.7419
  665TIP3   OH223553   1.114   1.309   2.172 -0.1698  0.8333  0.2387
  665TIP3    H123554   1.096   1.368   2.245 -1.1036 -1.2013  1.7271
  665TIP3    H223555   1.041   1.322   2.112 -1.0972  0.2630  1.2045
  666TIP3   OH223556   1.151   6.157   7.969  0.1477  0.0785 -0.3923
  666TIP3    H123557   1.163   6.251   7.954 -0.5446  0.4489  1.1903
  666TIP3    H223558   1.210   6.136   8.042 -0.1249 -0.5868 -0.3550
  667TIP3   OH223559   1.810   4.098   1.054  0.3587 -0.3940  0.0214
  667TIP3    H123560   1.841   4.022   1.102  0.9539 -0.1349  0.0592
  667TIP3    H223561   1.748   4.141   1.113  0.9200 -0.1994  0.4762
  668TIP3   OH223562   0.871   4.671   7.642  0.0593 -0.3475  0.1584
  668TIP3    H123563   0.955   4.630   7.660 -0.1638 -0.8923 -0.0010
  668TIP3    H223564   0.892   4.762   7.624  0.6533 -0.5407 -0.1714
  669TIP3   OH223565   1.711   1.886   8.223  0.1027  0.5449 -0.7361
  669TIP3    H123566   1.795   1.849   8.251 -1.8923 -0.5970  5.0413
  669TIP3    H223567   1.725   1.981   8.227  1.0168  0.3831  0.8962
  670TIP3   OH223568   4.485   0.086   8.530 -0.7757  0.1054 -0.0276
  670TIP3    H123569   4.501  -0.007   8.516  0.3675  0.3660 -0.6458
  670TIP3    H223570   4.439   0.114   8.451 -0.0509  0.2855 -0.4006
  671TIP3   OH223571   3.657   5.930   8.407 -0.3183  0.0839  0.7296
  671TIP3    H123572   3.685   5.839   8.417 -0.8512  0.0102  1.6616
  671TIP3    H223573   3.706   5.962   8.332  0.8155 -0.6029  1.1520
  672TIP3   OH223574   5.770   4.927   7.939  0.6094 -0.0955  0.1296
  672TIP3    H123575   5.739   4.998   7.883  1.0118 -0.7262 -0.9174
  672TIP3    H223576   5.700   4.916   8.005  0.0476  0.5343 -0.3482
  673TIP3   OH223577   2.985   3.900   8.700  0.3108 -0.4229  0.3818
  673TIP3    H123578   2.977   3.895   8.795  0.1842 -0.0680  0.3937
  673TIP3    H223579   2.895   3.891   8.669  0.3796 -0.7899  0.2795
  674TIP3   OH223580   0.518   3.989   8.056 -0.2012 -0.0256 -0.5621
  674TIP3    H123581   0.490   3.898   8.052  0.0499 -0.1425  0.2614
  674TIP3    H223582   0.437   4.039   8.060 -0.3314 -0.3112  0.7790
  675TIP3   OH223583   4.181   0.569   8.826 -0.2103  0.2022 -0.3253
  675TIP3    H123584   4.217   0.594   8.741 -0.9288  0.4063 -0.5838
  675TIP3    H223585   4.086   0.580   8.815 -0.6516 -2.9258 -0.5839
  676TIP3   OH223586   4.242   2.500   2.962  0.0904 -0.2383 -0.0334
  676TIP3    H123587   4.238   2.587   3.003  0.0669 -0.1424 -0.2363
  676TIP3    H223588   4.335   2.482   2.952  0.1016 -0.5028  0.5698
  677TIP3   OH223589   1.141   4.145   7.253 -0.3228  0.8493 -0.0949
  677TIP3    H123590   1.137   4.233   7.216 -1.7102  0.5120 -0.8097
  677TIP3    H223591   1.051   4.125   7.279 -0.4249 -1.0273 -1.6293
  678TIP3   OH223592   2.511   5.026   8.740 -0.3846 -0.5116  0.1360
  678TIP3    H123593   2.426   5.013   8.699  0.4140 -0.8269 -1.5018
  678TIP3    H223594   2.512   5.119   8.765 -0.5977 -0.0972 -1.3271
  679TIP3   OH223595   0.642   5.421   1.999 -0.2840  0.8806 -0.2923
  679TIP3    H123596   0.717   5.408   2.058  0.2279  1.8412 -0.7088
  679TIP3    H223597   0.675   5.481   1.932 -0.7686 -0.4205 -1.7325
  680TIP3   OH223598   0.374   6.581   1.709 -0.1665 -0.7539 -0.5304
  680TIP3    H123599   0.336   6.587   1.621 -1.2852 -1.3214 -0.1096
  680TIP3    H223600   0.313   6.525   1.757 -0.1052  0.3510  0.8904
  681TIP3   OH223601   6.033   5.667   1.175  0.0829  0.3832  0.3953
  681TIP3    H123602   6.007   5.584   1.215  1.2377 -0.3867 -0.3656
  681TIP3    H223603   6.116   5.689   1.218  0.2091  0.7058 -0.0090
  682TIP3   OH223604   1.229   6.741   0.505  0.4308  0.1005  0.2383
  682TIP3    H123605   1.144   6.761   0.467 -0.0421 -2.5056 -0.2882
  682TIP3    H223606   1.282   6.711   0.431  1.8206  1.5787  0.5691
  683TIP3   OH223607   5.050   1.107   0.429 -0.3252  0.1897 -0.4047
  683TIP3    H123608   4.959   1.080   0.418 -0.6202 -0.4276  2.7646
  683TIP3    H223609   5.047   1.177   0.495  1.5151  0.0135 -0.0677
  684TIP3   OH223610   5.695   1.128   0.554 -0.3376  0.1754 -0.0698
  684TIP3    H123611   5.714   1.061   0.620 -0.1541 -2.9902 -3.0390
  684TIP3    H223612   5.781   1.155   0.522 -0.4431  1.2641  0.5161
  685TIP3   OH223613   3.585   1.838   2.065 -0.5389 -0.3375  0.2963
  685TIP3    H123614   3.599   1.891   1.986  1.1104  0.0998  0.8301
  685TIP3    H223615   3.496   1.805   2.057 -1.6154  2.4004 -0.1484
  686TIP3   OH223616   2.087   4.203   8.420  1.0176  0.4122  0.4751
  686TIP3    H123617   2.036   4.129   8.386  1.0675  0.2945  0.6598
  686TIP3    H223618   2.021   4.262   8.458  1.0766 -0.0373  1.2786
  687TIP3   OH223619   3.559   6.380   2.352 -0.1105  0.3504 -0.5603
  687TIP3    H123620   3.591   6.457   2.305  1.3183  0.3629  0.3626
  687TIP3    H223621   3.591   6.391   2.441 -2.0207 -0.1008  0.2406
  688TIP3   OH223622   6.529   5.454   2.155 -0.1414  0.5789  0.2165
  688TIP3    H123623   6.477   5.535   2.152  0.3479  0.8827 -1.9267
  688TIP3    H223624   6.591   5.463   2.083  0.1735 -1.5700  0.1625
  689TIP3   OH223625   0.177   6.635   7.695  1.0237  0.2374 -0.2473
  689TIP3    H123626   0.090   6.594   7.694  1.1887 -0.1212 -0.2321
  689TIP3    H223627   0.173   6.701   7.626  0.2751  1.2238  0.7163
  690TIP3   OH223628   5.304   3.897   1.779  0.3282  0.0962  0.0931
  690TIP3    H123629   5.236   3.863   1.721  1.5434  0.0560 -1.3772
  690TIP3    H223630   5.369   3.827   1.783 -0.6219 -0.7895  3.2446
  691TIP3   OH223631   1.500   6.639   3.028  0.0040 -0.0302 -0.3123
  691TIP3    H123632   1.431   6.576   3.007 -2.0039  1.4332  1.4110
  691TIP3    H223633   1.538   6.606   3.109 -1.6128  1.2821  1.0510
  692TIP3   OH223634   3.183   3.490   2.819 -0.0837 -0.7475  0.3164
  692TIP3    H123635   3.230   3.570   2.794 -1.3790  0.0113  0.2588
  692TIP3    H223636   3.202   3.480   2.912  0.2179 -0.4619  0.2903
  693TIP3   OH223637   6.448   0.631   0.717  0.4115  0.1409 -0.1569
  693TIP3    H123638   6.408   0.653   0.633  0.8159 -0.1677 -0.4359
  693TIP3    H223639   6.376   0.599   0.770 -0.3364  2.6884  0.4894
  694TIP3   OH223640   2.280   5.752   7.311  0.3118  0.6411 -0.0445
  694TIP3    H123641   2.286   5.665   7.272  2.1238  0.5039  0.4489
  694TIP3    H223642   2.331   5.746   7.391  0.6334  2.2086 -0.0959
  695TIP3   OH223643   1.111   4.175   2.082 -0.0275  0.6424  0.3803
  695TIP3    H123644   1.066   4.258   2.069 -0.8829  0.0125 -0.8757
  695TIP3    H223645   1.204   4.196   2.072  0.0564  1.9498  2.9374
  696TIP3   OH223646   0.534   4.072   0.137 -0.0287  0.1741 -0.0908
  696TIP3    H123647   0.584   3.991   0.145 -1.8020 -0.8678  1.0691
  696TIP3    H223648   0.479   4.075   0.215 -1.7727  1.2570 -1.2760
  697TIP3   OH223649   2.343   1.705   2.382  0.0662 -0.5033 -0.6176
  697TIP3    H123650   2.359   1.715   2.476 -2.9206 -1.0173  0.0449
  697TIP3    H223651   2.361   1.792   2.346 -1.6693  0.6310  0.9931
  698TIP3   OH223652   3.506   5.955   1.936 -0.1221 -0.0045 -0.0659
  698TIP3    H123653   3.519   5.902   2.014 -0.1736  0.8523  0.5364
  698TIP3    H223654   3.570   5.922   1.873  0.3723 -0.2671  0.5678
  699TIP3   OH223655   1.180   4.121   7.586 -0.2185 -0.2260  0.2859
  699TIP3    H123656   1.153   4.212   7.573 -0.1585 -0.5433 -2.7198
  699TIP3    H223657   1.172   4.081   7.499  0.5201 -2.9040  1.3565
  700TIP3   OH223658   2.585   1.910   0.519 -0.9383  0.6119 -0.1430
  700TIP3    H123659   2.627   1.984   0.475  1.5757 -1.9782 -2.5283
  700TIP3    H223660   2.604   1.923   0.612  1.5805  1.8020 -0.7352
  701TIP3   OH223661   1.742   0.497   8.466  0.2167 -0.2370  0.0729
  701TIP3    H123662   1.788   0.480   8.384 -0.6628  0.8988 -0.6989
  701TIP3    H223663   1.797   0.459   8.534  1.1986 -0.7842 -1.0077
  702TIP3   OH223664   1.362   1.675   7.950 -0.8101  0.7239  0.0061
  702TIP3    H123665   1.349   1.758   7.995  0.1739  2.2844 -2.3358
  702TIP3    H223666   1.316   1.686   7.866 -1.0445 -1.2827 -0.1674
  703TIP3   OH223667   3.354   2.437   1.270 -0.1067 -0.3884 -0.2718
  703TIP3    H123668   3.345   2.344   1.252  2.8465 -1.0787  1.2524
  703TIP3    H223669   3.395   2.473   1.191  3.6317 -1.5174  0.9564
  704TIP3   OH223670   4.647   1.812   0.888 -0.1541 -0.0705 -0.2291
  704TIP3    H123671   4.571   1.828   0.832  0.1371  1.8587 -0.1461
  704TIP3    H223672   4.636   1.873   0.961  2.4080  1.6815 -1.1760
  705TIP3   OH223673   6.678   3.433   2.409 -0.5206 -0.1048  0.1169
  705TIP3    H123674   6.771   3.452   2.402 -0.5032 -0.0145  0.5647
  705TIP3    H223675   6.670   3.381   2.490 -0.9135  0.2428  0.3045
  706TIP3   OH223676   3.959   5.575   0.264 -0.3601  0.0020  0.7663
  706TIP3    H123677   4.004   5.636   0.206 -0.5014  0.1875  0.8496
  706TIP3    H223678   3.870   5.569   0.227 -0.1503 -0.6780  0.3609
  707TIP3   OH223679   3.130   3.317   7.823 -0.2797 -0.5240 -0.8010
  707TIP3    H123680   3.216   3.357   7.809 -1.5457  1.8940 -2.4660
  707TIP3    H223681   3.082   3.381   7.877 -1.4580 -1.1593 -1.0478
  708TIP3   OH223682   2.996   1.511   1.555  0.2353 -0.2552 -0.4137
  708TIP3    H123683   2.936   1.453   1.507 -0.9230  1.6970 -1.4203
  708TIP3    H223684   3.083   1.484   1.525 -0.3351 -0.7892 -1.6856
  709TIP3   OH223685   6.592   1.432   8.243 -0.5301 -0.1965  0.0699
  709TIP3    H123686   6.569   1.468   8.328 -1.1638  2.6739 -1.2070
  709TIP3    H223687   6.687   1.416   8.249 -0.2966  1.3148  0.8790
  710TIP3   OH223688   5.038   0.380   1.702  0.2100  0.4194  0.4295
  710TIP3    H123689   4.958   0.357   1.655  0.4583  0.5689 -0.0623
  710TIP3    H223690   5.104   0.320   1.669  0.7458  1.5100 -0.5155
  711TIP3   OH223691   6.686   0.979   2.230 -0.1493 -0.4260 -0.4205
  711TIP3    H123692   6.744   0.903   2.221 -0.3256 -0.6180  0.0422
  711TIP3    H223693   6.740   1.053   2.200  0.7587 -0.4321  1.0615
  712TIP3   OH223694   3.049   4.549   7.396  0.7290 -0.0037  0.0271
  712TIP3    H123695   2.963   4.579   7.426  0.0614 -3.1449  1.8413
  712TIP3    H223696   3.029   4.470   7.344  2.4727 -1.4517  1.4349
  713TIP3   OH223697   4.999   3.732   8.022 -0.5702 -0.4087 -0.6028
  713TIP3    H123698   4.959   3.809   8.064  0.5268 -0.2148  0.1258
  713TIP3    H223699   4.982   3.745   7.928 -3.9516 -1.3556 -0.2501
  714TIP3   OH223700   1.529   0.297   8.477 -0.0509  0.6379  0.0765
  714TIP3    H123701   1.599   0.362   8.473  0.7363 -0.1689  0.4074
  714TIP3    H223702   1.474   0.325   8.550  1.8193 -0.5178  2.0601
  715TIP3   OH223703   3.476   1.533   1.700  0.5384  0.1496 -0.3208
  715TIP3    H123704   3.557   1.495   1.733 -0.0162 -0.8975 -0.1111
  715TIP3    H223705   3.465   1.495   1.613 -0.2165 -0.4800  0.0398
  716TIP3   OH223706   1.245   5.554   1.780  0.2622 -0.4528  0.2874
  716TIP3    H123707   1.235   5.567   1.874 -1.2127  1.1760 -0.0453
  716TIP3    H223708   1.192   5.624   1.740  3.0012  0.6054 -1.7715
  717TIP3   OH223709   5.726   0.700   0.361  0.5361  0.0261 -0.4481
  717TIP3    H123710   5.768   0.717   0.445 -1.0059 -2.2929  0.9044
  717TIP3    H223711   5.765   0.617   0.331 -1.0764 -0.7587 -0.4667
  718TIP3   OH223712   2.205   5.763   0.552 -0.2756 -0.0237 -0.7505
  718TIP3    H123713   2.123   5.738   0.593  0.6079 -1.6419  0.1398
  718TIP3    H223714   2.189   5.754   0.458 -0.4492 -2.7778 -0.5419
  719TIP3   OH223715   4.395   6.024   8.546 -0.3539 -0.6068  0.4958
  719TIP3    H123716   4.470   5.967   8.532  0.6068  0.6982  0.1208
  719TIP3    H223717   4.357   6.036   8.459  1.0733  1.4143  0.0598
  720TIP3   OH223718   2.481   3.161   0.179  0.2833 -0.3723  0.2395
  720TIP3    H123719   2.389   3.171   0.203  0.1723  3.6636 -1.1551
  720TIP3    H223720   2.478   3.130   0.088  0.2296  0.6352 -0.1141
  721TIP3   OH223721   4.737   3.671   8.302  0.3669 -0.1351  0.3133
  721TIP3    H123722   4.796   3.718   8.360  1.1257 -0.5072 -0.1393
  721TIP3    H223723   4.745   3.579   8.328 -1.6309 -0.0111  1.6628
  722TIP3   OH223724   5.924   4.734   2.923  0.2522 -0.4251 -0.2388
  722TIP3    H123725   5.950   4.824   2.903 -0.7171  0.1390  0.9323
  722TIP3    H223726   5.848   4.718   2.867 -1.8842  0.8351  2.0558
  723TIP3   OH223727   3.522   0.658   1.416  0.2722 -0.0137  1.0123
  723TIP3    H123728   3.457   0.630   1.480  1.0308 -0.4330  1.6246
  723TIP3    H223729   3.599   0.605   1.435  0.9705  0.8282  0.6464
  724TIP3   OH223730   3.522   3.611   1.690 -0.7076  0.2127 -0.4645
  724TIP3    H123731   3.436   3.597   1.730 -0.7620 -0.7800 -0.9112
  724TIP3    H223732   3.502   3.636   1.600 -0.5353  0.5060 -0.4226
  725TIP3   OH223733   5.116   0.891   1.094 -0.1505  0.4976  0.2055
  725TIP3    H123734   5.104   0.803   1.129  0.4384  0.6238  0.7425
  725TIP3    H223735   5.111   0.880   0.999  0.0524 -0.1323  0.2667
  726TIP3   OH223736   3.383   5.416   2.823 -0.6872  0.0740 -0.3192
  726TIP3    H123737   3.338   5.423   2.738  0.8140  2.0735 -1.0253
  726TIP3    H223738   3.398   5.506   2.850  0.2532 -0.5391  1.3365
  727TIP3   OH223739   0.271   4.050   7.797  0.1281 -0.0267 -0.0846
  727TIP3    H123740   0.343   4.104   7.831  0.2757  0.6548 -1.3967
  727TIP3    H223741   0.315   3.976   7.755  0.0086 -0.2074  0.1105
  728TIP3   OH223742   0.187   1.923   8.342 -0.2921  0.6479  0.3014
  728TIP3    H123743   0.094   1.946   8.332 -0.0745  1.0935 -0.8777
  728TIP3    H223744   0.196   1.839   8.297  0.0304  1.0191 -0.3499
  729TIP3   OH223745   1.140   4.914   1.288  0.1175 -0.2352 -0.5675
  729TIP3    H123746   1.135   4.820   1.273  0.4371 -0.3795  0.1792
  729TIP3    H223747   1.111   4.925   1.379  1.4525  0.2244 -0.1760
  730TIP3   OH223748   5.886   1.706   8.867  0.2143  0.1322  0.4137
  730TIP3    H123749   5.858   1.796   8.882 -1.9536  0.2786 -3.1989
  730TIP3    H223750   5.976   1.714   8.837  0.4600  0.9601  1.3351
  731TIP3   OH223751   3.480   1.426   2.008 -0.1719  0.0508 -0.3988
  731TIP3    H123752   3.529   1.479   1.945 -0.3964  1.1722  0.3262
  731TIP3    H223753   3.546   1.377   2.057  0.2732  1.5826  0.6024
  732TIP3   OH223754   4.401   1.503   8.172  0.3798  0.2527  0.0697
  732TIP3    H123755   4.368   1.433   8.229  0.6608 -1.9095 -2.2366
  732TIP3    H223756   4.323   1.539   8.130  0.3625  0.2989  0.1407
  733TIP3   OH223757   2.276   6.615   0.196  0.0468  0.2921  0.1987
  733TIP3    H123758   2.359   6.615   0.243  0.0115  0.3854  0.2619
  733TIP3    H223759   2.229   6.538   0.229  0.0920  0.2622  0.1921
  734TIP3   OH223760   5.204   4.351   7.613  0.1105  0.3566 -0.2677
  734TIP3    H123761   5.216   4.363   7.707  0.5261 -0.8217 -0.1554
  734TIP3    H223762   5.213   4.439   7.576 -2.0991  1.1887  0.9760
  735TIP3   OH223763   3.978   0.588   0.320  0.7023  0.1127  0.5164
  735TIP3    H123764   3.895   0.621   0.355  1.9581  1.5839  2.2917
  735TIP3    H223765   3.984   0.628   0.233 -1.1038 -1.2486 -0.3084
  736TIP3   OH223766   1.269   6.748   8.554  0.2871 -0.4995  0.2311
  736TIP3    H123767   1.185   6.702   8.557  0.1499 -0.2337  2.9953
  736TIP3    H223768   1.251   6.828   8.505 -0.8474 -0.8841 -0.0145
  737TIP3   OH223769   4.489   1.609   2.544  0.3246  0.1705 -0.0452
  737TIP3    H123770   4.444   1.676   2.594 -0.6128 -0.1177 -0.4675
  737TIP3    H223771   4.569   1.652   2.512  0.6481  0.5165  1.1938
  738TIP3   OH223772   6.467   5.442   0.696  0.0832 -0.1252  0.3340
  738TIP3    H123773   6.491   5.524   0.739 -0.5561 -0.4260  1.2803
  738TIP3    H223774   6.374   5.450   0.678  0.3379  0.0038 -1.0519
  739TIP3   OH223775   1.568   4.152   7.311 -0.1178  0.6848  0.3353
  739TIP3    H123776   1.603   4.228   7.265 -1.0115  1.0702  0.2651
  739TIP3    H223777   1.627   4.139   7.385  2.2785 -0.8973 -1.7047
  740TIP3   OH223778   5.849   3.635   0.983 -0.4900  0.9589  0.0737
  740TIP3    H123779   5.825   3.551   0.945 -0.3359  1.8958 -2.2481
  740TIP3    H223780   5.766   3.677   1.004 -0.5885  0.5675  0.4798
  741TIP3   OH223781   1.364   2.634   2.502  0.4327  0.5935 -0.8203
  741TIP3    H123782   1.402   2.587   2.576  0.6734 -0.3298 -1.5218
  741TIP3    H223783   1.427   2.624   2.432 -0.4385  0.2456 -1.5747
  742TIP3   OH223784   2.615   1.615   1.749  0.5215 -0.2496  0.4050
  742TIP3    H123785   2.615   1.520   1.731  1.3516 -0.1692 -0.0727
  742TIP3    H223786   2.668   1.652   1.679 -0.2364  0.6416  0.2838
  743TIP3   OH223787   0.500   4.948   0.772  0.2848  0.1013 -0.4317
  743TIP3    H123788   0.434   4.965   0.839 -0.2432 -1.6392 -0.4743
  743TIP3    H223789   0.483   4.858   0.743  1.2932  0.3727 -2.0097
  744TIP3   OH223790   5.019   0.869   2.441 -0.0029  0.0867  0.7688
  744TIP3    H123791   5.031   0.877   2.536  0.8016  1.8945  0.5462
  744TIP3    H223792   5.108   0.864   2.406 -0.2985 -0.5430  0.0887
  745TIP3   OH223793   1.293   0.397   0.158  0.5807  0.6574  0.1456
  745TIP3    H123794   1.301   0.353   0.073 -0.9422 -0.1381  0.3651
  745TIP3    H223795   1.268   0.327   0.219  1.2779  1.2825  1.1737
  746TIP3   OH223796   4.143   4.920   0.110  0.5234 -0.2127 -0.7575
  746TIP3    H123797   4.057   4.948   0.141  0.4618 -0.8896 -0.3004
  746TIP3    H223798   4.197   4.999   0.116  0.6922 -0.4652  1.7307
  747TIP3   OH223799   6.362   4.664   1.845  0.1592  0.1776  0.0650
  747TIP3    H123800   6.286   4.698   1.798  1.4777  3.0020 -0.2067
  747TIP3    H223801   6.326   4.625   1.925 -1.7168 -0.7273 -1.1401
  748TIP3   OH223802   5.807   0.436   8.710 -0.1444 -0.0551  0.4081
  748TIP3    H123803   5.842   0.360   8.757 -1.5975 -0.7912  0.3590
  748TIP3    H223804   5.861   0.442   8.631  1.5244  0.4449  1.5453
  749TIP3   OH223805   5.026   5.893   3.611  0.2327 -0.4047  0.5306
  749TIP3    H123806   5.023   5.986   3.632 -0.8225 -0.5464  1.0835
  749TIP3    H223807   5.080   5.888   3.532  1.7571  0.4682  1.4822
  750TIP3   OH223808   4.256   4.185   1.802 -0.0246  0.1673 -0.6415
  750TIP3    H123809   4.215   4.248   1.743 -0.2251 -1.3719 -2.2228
  750TIP3    H223810   4.350   4.203   1.796 -0.1058  0.5310 -0.8040
  751TIP3   OH223811   5.530   4.094   2.427  0.1159  0.4381 -0.3904
  751TIP3    H123812   5.595   4.089   2.498  0.2966 -0.5814 -0.6162
  751TIP3    H223813   5.446   4.100   2.471  0.2630  0.3093 -0.0905
  752TIP3   OH223814   0.995   0.251   1.762  0.1193  0.0373  0.0374
  752TIP3    H123815   0.970   0.160   1.747 -0.4663  0.1919  0.0274
  752TIP3    H223816   0.958   0.272   1.848  0.2539  0.2637  0.0395
  753TIP3   OH223817   1.186   2.716   0.248  0.3946  0.2180 -0.2743
  753TIP3    H123818   1.182   2.811   0.241 -1.0402  0.3595  1.5956
  753TIP3    H223819   1.246   2.699   0.320 -0.3092 -0.2269  0.2217
  754TIP3   OH223820   3.706   4.218   3.427  0.2186  0.1412  0.7621
  754TIP3    H123821   3.755   4.283   3.377 -0.0801  2.0811  2.7976
  754TIP3    H223822   3.635   4.191   3.369  2.0583 -0.6926 -1.2335
  755TIP3   OH223823   6.025   1.267   0.586  0.2987  0.4104 -0.5369
  755TIP3    H123824   6.024   1.205   0.659  2.8906  0.8551 -0.0366
  755TIP3    H223825   6.100   1.324   0.603 -0.6672  2.2805 -2.1494
  756TIP3   OH223826   3.762   3.713   2.419 -0.2897  0.6075 -0.1578
  756TIP3    H123827   3.850   3.728   2.384  0.1811 -1.2236  0.1334
  756TIP3    H223828   3.709   3.785   2.384  1.2337  1.5206 -0.6467
  757TIP3   OH223829   0.934   2.128   3.277 -0.6488 -0.7484  0.2151
  757TIP3    H123830   0.996   2.057   3.291 -0.4920 -0.4670  0.9819
  757TIP3    H223831   0.861   2.109   3.335  0.1634  0.6108  1.7571
  758TIP3   OH223832   0.614   4.387   0.377 -0.6214 -0.4474  0.4093
  758TIP3    H123833   0.581   4.473   0.401 -0.2977  0.0774 -0.9549
  758TIP3    H223834   0.708   4.390   0.397 -0.7973 -0.8827  1.3860
  759TIP3   OH223835   4.576   5.417   7.516 -0.0928 -0.1070 -0.0868
  759TIP3    H123836   4.645   5.396   7.578 -0.3813  0.0346  0.2864
  759TIP3    H223837   4.538   5.499   7.549 -0.6260 -0.3307 -0.1276
  760TIP3   OH223838   3.366   3.090   2.927 -0.1106  0.2639 -0.0731
  760TIP3    H123839   3.328   3.144   2.997 -1.8531 -0.6520 -0.2682
  760TIP3    H223840   3.446   3.054   2.966 -0.1550  1.1216  0.8534
  761TIP3   OH223841   4.404   0.064   0.707 -0.1079 -0.1865 -0.2967
  761TIP3    H123842   4.316   0.087   0.737  0.1014  1.2618 -0.7611
  761TIP3    H223843   4.393   0.042   0.615  0.1034  0.6213 -0.5227
  762TIP3   OH223844   5.298   0.380   1.534  0.2613  0.2387  0.0098
  762TIP3    H123845   5.356   0.456   1.531  0.0104  0.3900 -1.0360
  762TIP3    H223846   5.316   0.332   1.453 -0.8121  0.0856 -0.1516
  763TIP3   OH223847   5.530   1.036   0.338 -0.0669 -0.1018 -0.1167
  763TIP3    H123848   5.589   1.063   0.407  1.1049 -1.1721 -0.6653
  763TIP3    H223849   5.585   0.989   0.275 -1.2060  0.2511 -1.4484
  764TIP3   OH223850   6.371   2.171   0.719  0.4477 -0.1844  0.0046
  764TIP3    H123851   6.276   2.156   0.722  0.2546  0.9573  0.0663
  764TIP3    H223852   6.380   2.264   0.698  1.5649 -0.6173 -1.5934
  765TIP3   OH223853   5.578   5.408   8.439  0.5270 -0.2069  0.2847
  765TIP3    H123854   5.503   5.403   8.379 -0.0382 -1.8521  1.0692
  765TIP3    H223855   5.542   5.444   8.520  0.6568 -0.6088  0.5263
  766TIP3   OH223856   6.278   6.517   1.521  0.0673 -0.5429 -0.1611
  766TIP3    H123857   6.212   6.482   1.580 -0.9264  1.3525 -0.0836
  766TIP3    H223858   6.232   6.584   1.471  1.4289 -0.6285 -1.5995
  767TIP3   OH223859   3.438   2.611   0.021 -0.2707 -0.6289 -0.0550
  767TIP3    H123860   3.518   2.585   0.067 -0.2076  1.0489  0.8583
  767TIP3    H223861   3.469   2.647  -0.062 -0.1686 -1.0938 -0.2194
  768TIP3   OH223862   5.712   6.379   0.435 -0.1103 -0.2870  0.0487
  768TIP3    H123863   5.650   6.352   0.368 -0.1823 -0.2852  0.1142
  768TIP3    H223864   5.795   6.389   0.389 -0.1074 -0.5128  0.0037
  769TIP3   OH223865   6.546   4.563   2.620 -0.1232  0.2455  0.4308
  769TIP3    H123866   6.592   4.619   2.558 -1.1183  0.9818  0.3295
  769TIP3    H223867   6.565   4.474   2.591  1.2131  0.5167  0.4038
  770TIP3   OH223868   0.140   2.667   1.367  0.3040 -0.0563 -0.3876
  770TIP3    H123869   0.147   2.718   1.448 -2.3435  0.6502 -0.5108
  770TIP3    H223870   0.137   2.732   1.298  2.4478 -0.6556 -1.1323
  771TIP3   OH223871   4.836   2.676   7.158 -0.0324 -0.0095 -0.2868
  771TIP3    H123872   4.813   2.584   7.142 -0.1880 -0.1995  0.9668
  771TIP3    H223873   4.931   2.679   7.147 -0.0685 -0.2282 -0.7107
  772TIP3   OH223874   2.892   1.894   7.931  0.1630 -0.6637  0.5163
  772TIP3    H123875   2.878   1.876   7.838  0.4844 -0.6905  0.4720
  772TIP3    H223876   2.822   1.954   7.955 -0.6228 -1.5551  0.5346
  773TIP3   OH223877   2.185   6.132   7.575 -0.4163 -0.3753 -0.4338
  773TIP3    H123878   2.259   6.097   7.525  0.0790  0.2939 -0.1982
  773TIP3    H223879   2.200   6.227   7.574 -0.2519 -0.3686  1.1940
  774TIP3   OH223880   2.429   6.215   1.798 -0.3708  0.4792  0.1019
  774TIP3    H123881   2.335   6.207   1.785 -0.4111  1.1652 -0.0990
  774TIP3    H223882   2.467   6.178   1.718 -0.4224 -0.8140  0.6534
  775TIP3   OH223883   1.705   3.534   0.941 -0.4496 -0.3344 -0.3583
  775TIP3    H123884   1.651   3.499   1.012 -2.0432  3.7624  0.6884
  775TIP3    H223885   1.643   3.575   0.881  1.2795  2.3335 -0.4687
  776TIP3   OH223886   6.748   2.212   8.378 -0.5078 -0.1647  0.4746
  776TIP3    H123887   6.680   2.185   8.440 -2.1173 -0.3379 -1.2909
  776TIP3    H223888   6.743   2.308   8.377 -2.6809 -0.2152 -1.6259
  777TIP3   OH223889   2.044   6.222   8.002  0.0576 -0.2368  0.1458
  777TIP3    H123890   1.979   6.274   8.050  0.0488  0.2883 -0.4307
  777TIP3    H223891   2.002   6.136   7.991  0.6096 -0.8545  2.3133
  778TIP3   OH223892   6.735   3.061   1.101 -0.6272 -0.0170 -0.3186
  778TIP3    H123893   6.781   3.121   1.160  2.2551 -1.9711 -0.3753
  778TIP3    H223894   6.647   3.098   1.093  0.2605  2.8214  1.5226
  779TIP3   OH223895   6.033   3.812   1.167  0.4635 -0.1549  0.1321
  779TIP3    H123896   6.063   3.891   1.123 -0.9997  0.4464  0.1556
  779TIP3    H223897   5.944   3.798   1.133 -0.5774  0.1022  2.5503
  780TIP3   OH223898   0.393   4.119   1.967 -0.0055 -0.3476  0.2275
  780TIP3    H123899   0.427   4.183   1.904  0.9960 -0.7134  0.3857
  780TIP3    H223900   0.461   4.113   2.034 -0.8819 -0.2607  1.1456
  781TIP3   OH223901   6.562   0.111   8.727  0.4528 -0.4239  0.5908
  781TIP3    H123902   6.539   0.188   8.779  2.6512 -0.2846  1.4527
  781TIP3    H223903   6.570   0.144   8.637 -2.6294 -0.5214  0.1883
  782TIP3   OH223904   6.240   1.679   0.469 -0.2912  0.0390  0.5907
  782TIP3    H123905   6.203   1.617   0.532 -0.9517  0.1222  0.2953
  782TIP3    H223906   6.259   1.625   0.392  1.9698 -0.3757  1.3590
  783TIP3   OH223907   0.937   2.224   8.566  0.7889 -0.4174 -0.1442
  783TIP3    H123908   0.863   2.164   8.570  0.0850  0.4019 -0.6527
  783TIP3    H223909   0.900   2.306   8.533  1.9140  0.0164 -0.3634
  784TIP3   OH223910   4.591   6.712   2.573 -0.3821  0.6184  0.1883
  784TIP3    H123911   4.589   6.685   2.665  0.1577  1.4276  0.4481
  784TIP3    H223912   4.504   6.688   2.539  0.4075 -2.4972  0.0658
  785TIP3   OH223913   2.070   2.008   2.341  0.4898  0.1401 -0.6128
  785TIP3    H123914   2.065   2.002   2.436 -0.9998  0.2207 -0.6649
  785TIP3    H223915   2.160   1.982   2.320  1.5976  2.3130  0.9622
  786TIP3   OH223916   4.194   4.231   2.166  0.2451 -0.0872  0.4039
  786TIP3    H123917   4.196   4.136   2.171 -1.0294 -0.1117  1.0875
  786TIP3    H223918   4.286   4.258   2.169  0.5851 -1.2269  2.4226
  787TIP3   OH223919   0.085   2.829   3.073 -0.5393 -0.2087  0.0901
  787TIP3    H123920   0.025   2.755   3.084  0.4220 -1.0694 -0.3349
  787TIP3    H223921   0.156   2.812   3.134 -0.3898  0.4594  0.1090
  788TIP3   OH223922   6.001   0.848   2.252  0.3325 -0.6257  0.7877
  788TIP3    H123923   5.975   0.767   2.209  1.0727 -0.5222  0.0980
  788TIP3    H223924   6.087   0.867   2.215  0.0188  0.6572  0.6745
  789TIP3   OH223925   0.882   6.137   0.983 -0.0625 -0.9229  0.7070
  789TIP3    H123926   0.951   6.071   0.976  0.2784 -0.4057 -4.2016
  789TIP3    H223927   0.920   6.205   1.038  1.8890 -2.2815  1.1516
  790TIP3   OH223928   3.075   3.621   1.713  0.2060 -0.1900  0.4615
  790TIP3    H123929   3.150   3.619   1.771  0.9145 -1.2461 -0.4663
  790TIP3    H223930   3.057   3.715   1.701  1.8394  0.1012  0.1101
  791TIP3   OH223931   6.448   0.573   8.659  0.1361  0.7443 -0.6407
  791TIP3    H123932   6.426   0.499   8.602  1.2280  0.5117 -0.7930
  791TIP3    H223933   6.432   0.651   8.606  0.7274  0.5434 -1.1258
  792TIP3   OH223934   3.563   4.948   0.795 -0.4962 -0.4715 -0.7160
  792TIP3    H123935   3.558   4.853   0.786  0.0912 -0.5589 -0.2105
  792TIP3    H223936   3.607   4.961   0.879 -2.2831  0.2484  0.1742
  793TIP3   OH223937   4.667   6.326   2.274  0.0447 -0.2915 -0.1885
  793TIP3    H123938   4.705   6.333   2.362  1.2883 -1.0676 -0.6434
  793TIP3    H223939   4.686   6.411   2.234  0.1225 -0.1985  0.0404
  794TIP3   OH223940   6.738   3.345   2.929  0.2569 -0.2610  0.8404
  794TIP3    H123941   6.665   3.308   2.979  1.3440 -1.3960  1.6551
  794TIP3    H223942   6.800   3.272   2.919  0.6491  0.2628 -1.1091
  795TIP3   OH223943   2.388   4.769   2.183  0.0348 -0.3623  0.0135
  795TIP3    H123944   2.366   4.757   2.091  0.4931 -0.7106 -0.0578
  795TIP3    H223945   2.431   4.687   2.208  0.5256 -0.0126  0.3473
  796TIP3   OH223946   1.071   1.975   2.114 -0.6115 -0.5588  0.0975
  796TIP3    H123947   1.083   1.939   2.026 -0.1762  0.2642 -0.1842
  796TIP3    H223948   1.137   1.929   2.167  1.1075  0.9597 -0.6038
  797TIP3   OH223949   2.306   5.523   1.562  0.0103  0.0353  0.3960
  797TIP3    H123950   2.294   5.576   1.484 -0.6162  1.9117  1.6949
  797TIP3    H223951   2.388   5.556   1.600 -0.3066 -0.0260  1.1432
  798TIP3   OH223952   4.698   5.567   0.340  0.4237 -0.1352 -0.2632
  798TIP3    H123953   4.646   5.486   0.335  2.6898 -1.6551 -0.6006
  798TIP3    H223954   4.701   5.587   0.434 -0.1659 -0.4175 -0.1759
  799TIP3   OH223955   4.397   5.339   2.551  0.1190 -0.0793  0.7116
  799TIP3    H123956   4.318   5.307   2.508  0.8775  0.5104 -1.2337
  799TIP3    H223957   4.409   5.428   2.516 -0.0476  1.0740  3.3483
  800TIP3   OH223958   5.986   1.129   8.401 -0.3044  0.0825  0.1747
  800TIP3    H123959   6.010   1.218   8.374  1.3479 -0.3973 -0.1026
  800TIP3    H223960   5.925   1.099   8.333 -1.0331  1.0534  0.3813
  801TIP3   OH223961   5.442   4.665   2.204  0.4467  0.5266 -0.5476
  801TIP3    H123962   5.403   4.721   2.136 -1.0105  0.7422  0.4246
  801TIP3    H223963   5.376   4.663   2.274  1.0839 -1.2627  0.0424
  802TIP3   OH223964   3.673   6.285   1.141 -0.0077  0.8333 -0.2028
  802TIP3    H123965   3.653   6.284   1.235  0.4769  1.2898 -0.0860
  802TIP3    H223966   3.615   6.220   1.103 -0.2494  0.6848  0.4097
  803TIP3   OH223967   6.327   1.665   0.836  0.2610  0.2694 -0.7460
  803TIP3    H123968   6.238   1.697   0.820  0.5161  0.5747 -1.6278
  803TIP3    H223969   6.375   1.741   0.868  0.1192  0.0119  0.1030
  804TIP3   OH223970   2.735   0.594   0.890  0.4875 -0.3231  0.3783
  804TIP3    H123971   2.677   0.519   0.896  1.1714 -0.8085  1.1480
  804TIP3    H223972   2.807   0.564   0.834  0.8504 -0.3101  0.8298
  805TIP3   OH223973   5.176   0.623   2.547  0.3226 -0.1553  0.1210
  805TIP3    H123974   5.202   0.715   2.547 -1.6812  0.4600  0.1587
  805TIP3    H223975   5.109   0.618   2.615 -1.3026 -1.0952 -1.4604
  806TIP3   OH223976   0.025   5.541   3.230  0.1025  0.6347  0.1912
  806TIP3    H123977   0.033   5.448   3.212  0.5226  1.1405 -2.9592
  806TIP3    H223978   0.042   5.583   3.145 -0.0622  3.5786  1.4821
  807TIP3   OH223979   5.678   4.938   2.276  0.2711  0.0695 -0.1203
  807TIP3    H123980   5.659   4.962   2.185  0.1420  0.1724 -0.0655
  807TIP3    H223981   5.650   5.014   2.327 -0.4638 -0.3430  0.0880
  808TIP3   OH223982   5.829   0.624   8.003 -0.0217 -0.5723 -0.2928
  808TIP3    H123983   5.782   0.542   7.992  0.9249 -1.0859 -0.6236
  808TIP3    H223984   5.819   0.669   7.919 -0.1820 -0.5376 -0.2564
  809TIP3   OH223985   4.093   4.445   2.487  0.7679 -0.2925 -0.1861
  809TIP3    H123986   4.137   4.447   2.402 -0.6339  1.0090 -0.9326
  809TIP3    H223987   4.001   4.461   2.466  0.4955  0.7382  1.6385
  810TIP3   OH223988   0.692   5.600   2.924 -0.2899 -0.0352  0.1614
  810TIP3    H123989   0.628   5.655   2.881 -3.5142 -2.2880  1.6315
  810TIP3    H223990   0.726   5.543   2.855 -0.3763  0.7286 -0.5186
  811TIP3   OH223991   3.444   4.835   8.236 -0.0388 -0.1059  0.4525
  811TIP3    H123992   3.360   4.872   8.208  0.5165 -0.2805 -1.6073
  811TIP3    H223993   3.441   4.839   8.331 -1.5320  1.7956  0.3895
  812TIP3   OH223994   4.035   3.091   1.094  0.0669 -0.3103  0.4341
  812TIP3    H123995   4.097   3.093   1.167  1.0789 -2.2780 -0.3054
  812TIP3    H223996   3.981   3.014   1.110 -0.7171  0.1106 -0.1083
  813TIP3   OH223997   4.843   3.100   1.791 -0.0708 -0.1394  0.2461
  813TIP3    H123998   4.831   3.033   1.858  1.8885 -0.8455 -0.0369
  813TIP3    H223999   4.832   3.054   1.708  0.6498 -0.0035  0.0615
  814TIP3   OH224000   0.337   3.592   1.163 -0.3252 -0.0674  0.0565
  814TIP3    H124001   0.400   3.664   1.158 -1.0334  0.5269 -0.4281
  814TIP3    H224002   0.282   3.602   1.086 -1.6024 -0.0242  0.9429
  815TIP3   OH224003   3.060   3.201   2.479 -0.0452 -0.2084 -0.1806
  815TIP3    H124004   3.086   3.128   2.423 -1.1197 -0.9951  0.3310
  815TIP3    H224005   2.968   3.184   2.500  0.0594  0.6051  0.9982
  816TIP3   OH224006   6.019   5.264   8.189 -0.2301  0.5371 -0.0718
  816TIP3    H124007   5.998   5.356   8.205  1.8130  1.3051 -1.3486
  816TIP3    H224008   6.039   5.260   8.096 -0.8499 -1.3594 -0.1618
  817TIP3   OH224009   5.323   2.632   0.520 -0.1025 -0.4740 -0.3793
  817TIP3    H124010   5.241   2.675   0.543 -0.8151 -1.4790 -0.9384
  817TIP3    H224011   5.297   2.544   0.494  1.0822 -0.5718 -1.3110
  818TIP3   OH224012   0.085   2.228   1.488 -0.1599  0.0737 -0.2319
  818TIP3    H124013   0.077   2.149   1.435  1.1457 -0.2165 -0.0251
  818TIP3    H224014   0.066   2.300   1.428  1.3614 -0.2459 -1.1356
  819TIP3   OH224015   6.494   4.836   1.411 -0.4959  0.1545 -0.2124
  819TIP3    H124016   6.412   4.792   1.387 -0.3210 -0.5014  0.3878
  819TIP3    H224017   6.471   4.891   1.486 -0.5322  0.4876 -0.4641
  820TIP3   OH224018   2.995   2.272   8.060 -0.1581 -0.2530  0.7049
  820TIP3    H124019   3.072   2.317   8.025  0.0453  0.1172  1.6004
  820TIP3    H224020   3.003   2.281   8.155  0.3885 -3.0027  0.9870
  821TIP3   OH224021   3.193   5.430   1.626 -0.6153 -0.2080  0.2517
  821TIP3    H124022   3.109   5.385   1.635 -0.8760  0.0486 -0.7789
  821TIP3    H224023   3.182   5.510   1.677 -1.1550  0.0265 -0.2181
  822TIP3   OH224024   2.467   4.502   2.853  0.0172 -0.2883 -0.2532
  822TIP3    H124025   2.490   4.507   2.946 -1.4181 -2.6058  0.3436
  822TIP3    H224026   2.441   4.410   2.840 -0.1322  0.0385 -2.8825
  823TIP3   OH224027   3.928   4.519   0.132  0.1686  0.2576 -0.6867
  823TIP3    H124028   3.995   4.579   0.166 -0.0637 -0.4470  1.0868
  823TIP3    H224029   3.867   4.576   0.086 -1.4506  1.8937  3.0663
  824TIP3   OH224030   5.650   3.144   7.842  0.4212  0.2954  0.2659
  824TIP3    H124031   5.715   3.131   7.773 -0.2164 -0.3099 -0.2326
  824TIP3    H224032   5.657   3.237   7.865 -0.4811  0.9272 -1.7758
  825TIP3   OH224033   2.926   0.427   8.061  0.5503 -0.3635 -0.0857
  825TIP3    H124034   2.880   0.398   8.140  1.0757 -0.6349  0.1248
  825TIP3    H224035   2.860   0.422   7.992 -0.6831  2.3198  0.7688
  826TIP3   OH224036   6.075   3.884   3.236  0.1652 -0.0485  1.0050
  826TIP3    H124037   6.163   3.915   3.258  0.3578  0.8101 -0.8578
  826TIP3    H224038   6.049   3.831   3.312  2.2067 -0.1908  1.6592
  827TIP3   OH224039   3.165   6.145   8.375  0.2992  0.3203  0.0364
  827TIP3    H124040   3.175   6.200   8.297  0.3638 -1.3548 -1.2038
  827TIP3    H224041   3.254   6.114   8.393  0.4490  1.4587  1.4081
  828TIP3   OH224042   3.941   1.622   7.777 -0.4863 -0.1057 -0.0520
  828TIP3    H124043   3.969   1.696   7.724  0.3465 -0.0401  0.4567
  828TIP3    H224044   3.930   1.658   7.865 -2.5229 -0.0566 -0.2801
  829TIP3   OH224045   1.905   4.394   1.230  0.1831  0.1740 -0.0063
  829TIP3    H124046   1.946   4.376   1.145 -0.7981 -0.5038 -0.3514
  829TIP3    H224047   1.915   4.312   1.278  0.1895  0.3576  0.3032
  830TIP3   OH224048   5.469   5.604   1.104 -0.9943 -0.0911  0.1880
  830TIP3    H124049   5.485   5.663   1.177 -0.0074  0.3928 -0.3986
  830TIP3    H224050   5.404   5.648   1.050 -0.3316  0.4247 -0.1977
  831TIP3   OH224051   4.616   0.239   0.787 -0.6634 -0.2511  0.3995
  831TIP3    H124052   4.547   0.193   0.738  0.5261 -0.2853 -1.3445
  831TIP3    H224053   4.603   0.331   0.765  0.8889 -0.4149 -1.4375
  832TIP3   OH224054   2.331   5.887   8.078  0.2416 -0.1330  0.3920
  832TIP3    H124055   2.419   5.923   8.065 -0.1407  0.5796 -0.2881
  832TIP3    H224056   2.289   5.893   7.993 -0.9057  0.7479  0.9898
  833TIP3   OH224057   6.244   3.518   8.412 -0.6380 -0.1962  0.0719
  833TIP3    H124058   6.198   3.435   8.424  0.0095 -0.6520 -0.5826
  833TIP3    H224059   6.181   3.584   8.442 -1.5144 -0.8492 -0.2758
  834TIP3   OH224060   2.416   3.391   3.305 -0.1553  0.5462  0.1479
  834TIP3    H124061   2.353   3.376   3.235 -1.9066 -1.5244  2.0210
  834TIP3    H224062   2.490   3.334   3.284 -1.0789 -0.7774  0.4355
  835TIP3   OH224063   3.797   2.601   3.109  0.2794 -0.0098 -0.1303
  835TIP3    H124064   3.747   2.544   3.050 -0.5844  2.0695 -1.5469
  835TIP3    H224065   3.732   2.633   3.172  0.6104 -0.0451  0.2330
  836TIP3   OH224066   2.505   3.218   1.595  0.1451 -0.2281  0.3762
  836TIP3    H124067   2.563   3.294   1.588  0.2679 -0.4163 -0.8642
  836TIP3    H224068   2.553   3.147   1.553 -1.3817 -0.1414 -1.6357
  837TIP3   OH224069   0.295   3.997   2.270 -0.1640 -1.0787 -0.4031
  837TIP3    H124070   0.300   4.058   2.197 -0.3371 -1.2409 -0.5477
  837TIP3    H224071   0.374   4.017   2.322 -0.4708 -0.4002 -0.1864
  838TIP3   OH224072   2.356   5.073   2.551  0.2399  0.7744 -0.1034
  838TIP3    H124073   2.412   5.049   2.624 -0.5960  1.3357  0.7415
  838TIP3    H224074   2.268   5.046   2.578 -0.8424  4.7422  1.0237
  839TIP3   OH224075   4.501   1.143   2.324 -0.1499  0.3978  0.1948
  839TIP3    H124076   4.484   1.106   2.238 -2.6173 -1.1151  1.2026
  839TIP3    H224077   4.576   1.201   2.312  0.8609 -1.3165 -2.4952
  840TIP3   OH224078   4.712   0.512   2.775 -0.1263  0.2054 -0.0063
  840TIP3    H124079   4.673   0.588   2.818  0.1470  0.5891 -0.4152
  840TIP3    H224080   4.691   0.438   2.831 -0.2741  0.6097  0.4751
  841TIP3   OH224081   5.291   2.212   2.603  0.6587 -0.7401  0.5751
  841TIP3    H124082   5.334   2.250   2.679 -0.1949  0.2107  0.6012
  841TIP3    H224083   5.258   2.128   2.634 -0.4927  0.0402  1.5442
  842TIP3   OH224084   0.648   2.642   3.100  0.2485  0.4475 -0.3098
  842TIP3    H124085   0.554   2.660   3.107  0.2104  0.8307 -1.5302
  842TIP3    H224086   0.683   2.661   3.187 -0.8727 -0.1805  0.3097
  843TIP3   OH224087   5.255   2.437   8.782 -0.0734 -0.0010 -0.0146
  843TIP3    H124088   5.286   2.410   8.868 -0.3439  2.8440  1.0737
  843TIP3    H224089   5.329   2.481   8.741 -0.6013  0.6585 -0.2872
  844TIP3   OH224090   3.910   4.298   2.949  0.2769 -0.0280 -0.0088
  844TIP3    H124091   3.936   4.273   2.860  0.5299  0.8637 -0.1936
  844TIP3    H224092   3.853   4.227   2.979  0.6025 -0.5821 -0.6918
  845TIP3   OH224093   1.708   4.869   7.732 -0.1629 -0.2750 -0.4796
  845TIP3    H124094   1.623   4.888   7.772 -0.3783 -2.0693 -0.0179
  845TIP3    H224095   1.687   4.818   7.654  0.4921 -1.0389 -0.1644
  846TIP3   OH224096   6.243   3.044   2.327  0.8160 -0.8379  0.4844
  846TIP3    H124097   6.338   3.047   2.338  0.6854 -1.4930  2.1518
  846TIP3    H224098   6.229   3.027   2.234  2.2750  0.8232 -0.0846
  847TIP3   OH224099   1.108   3.391   2.251  0.1032 -0.3733 -0.1300
  847TIP3    H124100   1.043   3.451   2.215  0.3052 -0.2882 -0.3575
  847TIP3    H224101   1.192   3.425   2.220  0.3043 -0.1560  0.6358
  848TIP3   OH224102   0.734   6.372   2.835  0.3429  0.3289  0.7032
  848TIP3    H124103   0.734   6.467   2.826  1.8989  0.2809 -0.2772
  848TIP3    H224104   0.814   6.353   2.884  1.3494 -0.5633 -1.1438
  849TIP3   OH224105   2.626   1.340   8.899  0.4743 -0.1487  0.1870
  849TIP3    H124106   2.610   1.373   8.811 -2.1032 -0.3237  0.5065
  849TIP3    H224107   2.622   1.417   8.955  2.1437 -0.0322  0.1854
  850TIP3   OH224108   1.604   4.690   7.536 -0.0936 -0.2672 -0.2098
  850TIP3    H124109   1.623   4.596   7.532 -1.4229 -0.5284 -0.9840
  850TIP3    H224110   1.515   4.698   7.502 -0.0839  1.2593  0.0523
  851TIP3   OH224111   5.129   2.031   0.277  0.5801 -0.4751  0.0834
  851TIP3    H124112   5.189   1.993   0.341  0.1907 -0.0636  0.6929
  851TIP3    H224113   5.042   2.017   0.314  0.2291 -1.5968 -1.0657
  852TIP3   OH224114   2.105   5.793   7.576  0.5312 -0.2399 -0.3959
  852TIP3    H124115   2.139   5.800   7.487  1.3753  0.2296 -0.0545
  852TIP3    H224116   2.071   5.704   7.583  0.1884 -0.1818 -1.2767
  853TIP3   OH224117   4.375   0.700   2.749 -0.6924  0.0696 -0.2686
  853TIP3    H124118   4.434   0.718   2.822 -0.8746 -1.6593  0.3629
  853TIP3    H224119   4.296   0.749   2.769  0.1771  1.6937 -0.6710
  854TIP3   OH224120   6.258   1.969   3.005 -0.1377 -0.0675  1.0043
  854TIP3    H124121   6.284   1.886   3.043  0.2516 -0.0234  0.8464
  854TIP3    H224122   6.311   1.976   2.925 -0.2704  0.2637  0.9429
  855TIP3   OH224123   0.054   2.689   7.421 -0.3514 -0.0643 -0.2788
  855TIP3    H124124   0.058   2.784   7.409  0.5237  0.0313  0.6772
  855TIP3    H224125   0.137   2.656   7.388 -0.8279 -0.5736 -1.0307
  856TIP3   OH224126   3.958   5.526   7.730 -0.1272 -0.0371  0.4444
  856TIP3    H124127   3.928   5.444   7.692  1.5658  0.0544 -1.2152
  856TIP3    H224128   3.914   5.594   7.679  0.9833  0.0747 -0.4039
  857TIP3   OH224129   5.449   3.745   3.163  0.4244  0.0574 -0.4400
  857TIP3    H124130   5.483   3.667   3.118 -0.4077 -0.5141 -0.1107
  857TIP3    H224131   5.367   3.764   3.118  0.8995  1.0982 -0.8851
  858TIP3   OH224132   5.715   2.001   1.002  0.4699  0.1067  0.2096
  858TIP3    H124133   5.636   1.983   0.950  0.2851  2.4696 -0.4754
  858TIP3    H224134   5.701   1.953   1.083 -0.7326 -1.1361 -0.6707
  859TIP3   OH224135   4.397   2.654   0.768 -0.9945  0.4965  0.0475
  859TIP3    H124136   4.355   2.588   0.713  0.9902 -1.3710  0.6346
  859TIP3    H224137   4.394   2.734   0.716 -2.2668 -0.3593 -1.2648
  860TIP3   OH224138   0.283   1.349   0.620  0.4652 -0.1989  0.1281
  860TIP3    H124139   0.256   1.412   0.554 -1.0018 -1.0764 -0.1473
  860TIP3    H224140   0.203   1.305   0.646  1.3136 -1.3016  1.0071
  861TIP3   OH224141   1.502   1.232   2.830 -0.1396  0.0240 -0.1020
  861TIP3    H124142   1.573   1.168   2.822 -1.5677 -1.5696 -0.4886
  861TIP3    H224143   1.543   1.316   2.809  1.6090 -0.8628 -0.3785
  862TIP3   OH224144   3.528   3.731   1.369  0.4952  0.0490  0.5080
  862TIP3    H124145   3.511   3.781   1.289 -1.3660 -1.0355  0.1637
  862TIP3    H224146   3.472   3.772   1.435 -2.2486 -2.3585 -0.1433
  863TIP3   OH224147   4.653   4.124   2.254 -0.1920 -0.4855  0.7363
  863TIP3    H124148   4.631   4.216   2.239  0.7959 -0.0749  1.6126
  863TIP3    H224149   4.741   4.127   2.292  1.2047 -1.9693 -2.0567
  864TIP3   OH224150   0.889   0.067   7.527 -0.7669  0.1157 -0.2062
  864TIP3    H124151   0.816   0.022   7.569 -0.5097 -0.7553 -0.6554
  864TIP3    H224152   0.946  -0.004   7.497  0.0926  0.7720 -0.1587
  865TIP3   OH224153   1.957   5.088   0.648  0.2378  0.3932  0.2386
  865TIP3    H124154   2.052   5.084   0.635  0.1185 -1.0695 -0.3796
  865TIP3    H224155   1.921   5.048   0.569 -0.9166  1.2255  0.3207
  866TIP3   OH224156   1.996   6.394   0.434 -0.1292 -0.2267 -0.0292
  866TIP3    H124157   1.907   6.368   0.455 -0.3820 -0.8044 -1.6626
  866TIP3    H224158   2.024   6.448   0.508 -1.3454 -1.1246  1.1242
  867TIP3   OH224159   3.192   4.716   1.335 -0.2531  0.5625  0.3471
  867TIP3    H124160   3.147   4.798   1.313  1.0367  1.2356  0.1261
  867TIP3    H224161   3.285   4.736   1.324  0.0894 -0.9145  0.3785
  868TIP3   OH224162   4.812   3.256   7.442 -0.1765 -0.4782  0.1387
  868TIP3    H124163   4.867   3.197   7.391  1.3866  0.6954  0.3866
  868TIP3    H224164   4.850   3.342   7.428 -0.2443  0.0058  2.5245
  869TIP3   OH224165   0.507   2.941   2.009  0.7092 -0.5529  0.0298
  869TIP3    H124166   0.475   2.857   2.041 -0.2842 -0.4435 -0.6154
  869TIP3    H224167   0.593   2.922   1.973  0.1136 -1.5030 -0.9600
  870TIP3   OH224168   2.327   4.017   3.687 -0.0988 -0.1119  0.0148
  870TIP3    H124169   2.266   4.002   3.615 -1.6087  0.0912  1.2009
  870TIP3    H224170   2.349   3.929   3.718  0.1169 -0.1805 -0.3220
  871TIP3   OH224171   3.964   2.707   8.426 -0.9751 -0.2714  0.1481
  871TIP3    H124172   3.976   2.712   8.521 -0.0733  1.3126 -0.0203
  871TIP3    H224173   4.051   2.685   8.392 -0.9562  0.5729 -0.3837
  872TIP3   OH224174   6.437   6.091   8.869  0.1864 -0.1306  0.0260
  872TIP3    H124175   6.483   6.147   8.807  0.6311 -1.4179 -0.8416
  872TIP3    H224176   6.344   6.107   8.852  0.2690  1.5455  0.9298
  873TIP3   OH224177   2.578   3.737   1.201 -0.2309  0.5766 -0.1668
  873TIP3    H124178   2.648   3.704   1.145 -1.6005 -0.2858 -1.4476
  873TIP3    H224179   2.609   3.721   1.291  1.4097  0.7098 -0.6837
  874TIP3   OH224180   4.880   4.925   0.784  0.3008  0.1508 -0.0990
  874TIP3    H124181   4.932   4.880   0.717  1.4197  0.2598  0.6709
  874TIP3    H224182   4.790   4.904   0.762  0.7403 -1.6989 -0.3367
  875TIP3   OH224183   3.856   0.961   1.492  0.7576 -0.0353  0.6484
  875TIP3    H124184   3.824   0.886   1.542  0.7124  0.5310  1.4951
  875TIP3    H224185   3.935   0.930   1.450  0.4207 -0.7331  0.5164
  876TIP3   OH224186   0.788   1.233   1.983 -0.2587  0.1682 -0.3449
  876TIP3    H124187   0.757   1.158   1.931  0.5856 -1.4709  1.4012
  876TIP3    H224188   0.758   1.213   2.072  0.9244  1.3833  0.3410
  877TIP3   OH224189   1.496   5.827   2.204 -0.2405 -0.0930  0.0859
  877TIP3    H124190   1.422   5.888   2.202  0.1135  0.4427  1.6830
  877TIP3    H224191   1.466   5.751   2.154 -0.9826  1.0533 -1.3078
  878TIP3   OH224192   2.547   1.012   2.938  0.1275  0.3713 -0.0481
  878TIP3    H124193   2.525   1.095   2.980 -1.1239  0.0432  0.0030
  878TIP3    H224194   2.502   0.946   2.991  0.8464 -0.3097 -0.2728
  879TIP3   OH224195   6.556   3.564   0.073 -0.1483 -0.6082  0.2869
  879TIP3    H124196   6.590   3.516  -0.003 -0.6425 -0.9413  0.2666
  879TIP3    H224197   6.627   3.623   0.098 -0.4205  0.4091 -1.1976
  880TIP3   OH224198   2.885   1.201   7.787 -0.2885 -0.7474  0.3401
  880TIP3    H124199   2.791   1.206   7.805  0.0830  1.3931  2.1816
  880TIP3    H224200   2.905   1.286   7.746  1.0859 -0.5050  1.4583
  881TIP3   OH224201   1.626   3.185   1.089  0.3169 -0.1129  0.2654
  881TIP3    H124202   1.721   3.181   1.087  0.2847 -3.7577 -0.1542
  881TIP3    H224203   1.599   3.172   0.998 -0.6777  2.5361  0.0825
  882TIP3   OH224204   2.554   4.612   8.918 -0.1665 -0.3257  0.0157
  882TIP3    H124205   2.593   4.625   8.831 -0.8709  0.9464 -0.1355
  882TIP3    H224206   2.599   4.535   8.953  0.7631 -0.3287 -1.1120
  883TIP3   OH224207   0.246   6.226   0.489 -0.4070  0.2877  0.5129
  883TIP3    H124208   0.268   6.309   0.446  1.6132 -0.5324 -0.1814
  883TIP3    H224209   0.174   6.190   0.438  0.5493  0.3482 -0.9487
  884TIP3   OH224210   4.594   5.670   2.613  0.2866  0.0551 -0.2040
  884TIP3    H124211   4.544   5.736   2.660 -0.9947 -0.9324 -0.1239
  884TIP3    H224212   4.528   5.621   2.564  1.5566  1.1296 -3.2191
  885TIP3   OH224213   0.666   0.787   2.561  0.0268 -0.4659 -0.3173
  885TIP3    H124214   0.659   0.879   2.584  0.0502 -1.1133  2.6090
  885TIP3    H224215   0.749   0.780   2.513 -0.9066  1.2753 -2.2979
  886TIP3   OH224216   2.404   1.803   1.012  0.1019 -0.4441  0.5149
  886TIP3    H124217   2.419   1.767   0.924 -1.0672 -0.0831  0.1402
  886TIP3    H224218   2.490   1.803   1.053  0.1714 -3.7611  0.5921
  887TIP3   OH224219   4.288   6.082   8.262 -0.4654  0.3067 -0.4885
  887TIP3    H124220   4.199   6.071   8.293 -0.3052  1.0926  0.2829
  887TIP3    H224221   4.309   5.999   8.219 -1.0152 -0.4940  0.7346
  888TIP3   OH224222   0.622   2.715   1.722  0.4815  0.1289 -0.1376
  888TIP3    H124223   0.633   2.773   1.797 -1.5649 -1.7227  1.7542
  888TIP3    H224224   0.673   2.637   1.744  1.3688  0.2595 -1.5903
  889TIP3   OH224225   2.171   5.006   1.022 -0.0501 -1.1450  0.4184
  889TIP3    H124226   2.135   5.093   1.009 -0.3538 -1.4002 -0.5407
  889TIP3    H224227   2.244   5.001   0.960  1.1753 -0.9089  1.7933
  890TIP3   OH224228   6.168   6.497   8.753  0.1542  0.1180 -0.3729
  890TIP3    H124229   6.249   6.546   8.766  2.2467 -2.6655 -1.6011
  890TIP3    H224230   6.168   6.433   8.824 -1.8036  0.9661  0.4498
  891TIP3   OH224231   1.163   5.846   8.181  0.0902  0.9386 -0.8880
  891TIP3    H124232   1.078   5.830   8.140 -0.5288  2.5600 -0.3273
  891TIP3    H224233   1.226   5.805   8.122 -1.1081 -1.0608 -0.8806
  892TIP3   OH224234   4.900   2.540   3.102 -0.0424 -0.5101  0.2169
  892TIP3    H124235   4.990   2.546   3.135  0.2642 -0.0040 -0.6759
  892TIP3    H224236   4.846   2.538   3.181  0.6129  1.6299  0.7888
  893TIP3   OH224237   1.789   6.184   1.087 -0.3248  0.1212  0.1393
  893TIP3    H124238   1.813   6.150   1.000  1.0960 -0.6470  0.7905
  893TIP3    H224239   1.873   6.199   1.130 -0.8847 -2.8238  2.6080
  894TIP3   OH224240   1.698   1.990   0.593 -0.3309 -0.5896 -0.2187
  894TIP3    H124241   1.751   1.928   0.643  0.6574  0.3339 -0.0636
  894TIP3    H224242   1.674   1.943   0.513 -0.0867 -1.3503  0.1463
  895TIP3   OH224243   2.275   1.948   3.519  0.2156  0.0844 -0.2203
  895TIP3    H124244   2.345   2.010   3.501  0.8466 -0.3242  0.7492
  895TIP3    H224245   2.305   1.899   3.596 -0.7566 -0.6699 -0.2981
  896TIP3   OH224246   4.235   4.187   0.777  0.0649  0.1473 -0.1534
  896TIP3    H124247   4.212   4.122   0.710 -2.3110 -0.8928  1.5169
  896TIP3    H224248   4.207   4.270   0.740  0.3127 -0.1618 -1.0872
  897TIP3   OH224249   0.661   1.361   1.168 -0.7482 -0.3799  0.3417
  897TIP3    H124250   0.573   1.385   1.196 -0.8037 -0.5673  0.3301
  897TIP3    H224251   0.649   1.325   1.080 -0.5365  0.5108 -0.0619
  898TIP3   OH224252   3.026   3.161   3.553 -0.2827  0.0797 -0.8069
  898TIP3    H124253   3.094   3.094   3.549 -0.2201  0.1106 -0.2762
  898TIP3    H224254   2.944   3.112   3.550 -0.2386  0.0270 -1.1897
  899TIP3   OH224255   2.646   6.162   0.339  0.3373 -0.7055  0.1207
  899TIP3    H124256   2.624   6.222   0.410 -1.2171 -1.4752  0.3309
  899TIP3    H224257   2.740   6.175   0.325  0.1837  1.2604  0.6140
  900TIP3   OH224258   6.160   3.971   1.605 -0.2884  0.8043 -0.3140
  900TIP3    H124259   6.136   4.063   1.596  0.1931  1.0495  0.6968
  900TIP3    H224260   6.117   3.943   1.686  0.2812  0.3929 -0.1427
  901TIP3   OH224261   4.251   1.902   1.050  0.1898 -0.6706  0.3534
  901TIP3    H124262   4.222   1.971   1.110  1.1611 -1.2010  1.4481
  901TIP3    H224263   4.315   1.851   1.099 -1.7133 -3.4402  0.1925
  902TIP3   OH224264   0.843   4.881   2.039 -0.7175 -0.2081 -0.0982
  902TIP3    H124265   0.800   4.796   2.039 -0.8202 -0.1668  1.3132
  902TIP3    H224266   0.868   4.896   2.130  3.0422 -0.6276 -0.8728
  903TIP3   OH224267   5.136   4.347   2.684 -0.2105 -0.4399  0.7590
  903TIP3    H124268   5.156   4.362   2.776 -1.4700  1.1995  0.8094
  903TIP3    H224269   5.041   4.355   2.678 -0.0302  0.9950 -0.9014
  904TIP3   OH224270   4.560   2.665   0.046 -0.2521  0.1483  0.3252
  904TIP3    H124271   4.522   2.638   0.130 -1.0475  2.1176  0.6778
  904TIP3    H224272   4.563   2.585  -0.006 -0.2770 -1.0168  2.0222
  905TIP3   OH224273   4.728   0.610   2.062 -0.1300  0.8711  0.2292
  905TIP3    H124274   4.684   0.694   2.046  3.1871  2.5447 -1.1001
  905TIP3    H224275   4.700   0.554   1.990 -1.2098  1.3348  0.2751
  906TIP3   OH224276   4.027   5.855   1.687 -0.0125 -0.0640  0.4736
  906TIP3    H124277   4.119   5.828   1.687 -0.1901 -0.7268  1.3564
  906TIP3    H224278   4.029   5.946   1.658  1.0965  0.4602  2.0415
  907TIP3   OH224279   1.156   1.467   3.019 -0.2416  0.3673  0.6297
  907TIP3    H124280   1.120   1.514   3.094 -2.7842  1.1635 -0.9767
  907TIP3    H224281   1.080   1.431   2.973  1.1954 -0.1284 -1.5582
  908TIP3   OH224282   6.732   5.309   2.388  0.3709 -0.3665 -0.2292
  908TIP3    H124283   6.746   5.380   2.451 -3.7420 -0.6599  1.3493
  908TIP3    H224284   6.685   5.350   2.315 -1.1613 -1.1772  0.2438
  909TIP3   OH224285   6.236   4.855   2.128  0.1279 -0.7532 -0.2077
  909TIP3    H124286   6.212   4.763   2.137 -1.6264 -0.1199  2.7872
  909TIP3    H224287   6.176   4.890   2.062 -0.9271 -1.2259  0.4920
  910TIP3   OH224288   3.704   0.598   0.073 -0.1712 -0.2609 -0.1076
  910TIP3    H124289   3.659   0.534   0.017  2.5528 -1.9311 -0.5823
  910TIP3    H224290   3.689   0.566   0.162 -0.9246 -0.0704 -0.1579
  911TIP3   OH224291   2.150   0.238   8.500  0.5822  0.1084 -0.1340
  911TIP3    H124292   2.067   0.280   8.523 -1.3344 -1.8220 -2.9556
  911TIP3    H224293   2.195   0.226   8.584 -2.2176  0.6873  1.5682
  912TIP3   OH224294   3.799   0.133   8.334 -0.7434  0.4051  0.1318
  912TIP3    H124295   3.870   0.144   8.271 -1.3553 -0.8592 -0.8296
  912TIP3    H224296   3.768   0.222   8.352  0.9689  0.9742  0.4759
  913TIP3   OH224297   4.410   6.281   8.686 -0.7349 -0.5851  0.2310
  913TIP3    H124298   4.505   6.293   8.688 -0.8198  0.1767  0.0025
  913TIP3    H224299   4.397   6.192   8.653 -0.0951 -0.8010  0.5511
  914TIP3   OH224300   2.086   4.439   8.690 -0.3174  0.5961  0.2232
  914TIP3    H124301   2.027   4.386   8.636  0.1678  1.6960 -1.4877
  914TIP3    H224302   2.059   4.420   8.780 -1.1210 -1.3858 -0.3629
  915TIP3   OH224303   5.419   6.191   2.441  0.3393  0.3286  0.7217
  915TIP3    H124304   5.412   6.111   2.492 -0.1698  1.4909  2.5953
  915TIP3    H224305   5.358   6.252   2.484 -0.0363  1.4287 -1.2358
  916TIP3   OH224306   1.712   0.254   8.767  0.9813  0.0836  0.1940
  916TIP3    H124307   1.658   0.333   8.770  0.3620 -0.3512  1.6662
  916TIP3    H224308   1.758   0.254   8.852  1.7865 -0.5935 -0.2287
  917TIP3   OH224309   5.543   5.312   0.272  0.5045 -0.6046  0.7331
  917TIP3    H124310   5.512   5.228   0.237 -1.2824  0.5289 -0.5912
  917TIP3    H224311   5.566   5.363   0.195 -0.2944  0.7792  1.3735
  918TIP3   OH224312   6.432   1.221   1.483  0.3297  0.4053 -0.1892
  918TIP3    H124313   6.412   1.144   1.536  1.8689 -0.1637 -0.3892
  918TIP3    H224314   6.456   1.288   1.548  0.3999  0.2839 -0.0901
  919TIP3   OH224315   0.939   4.718   0.315 -0.1771 -0.7163  0.2596
  919TIP3    H124316   1.009   4.781   0.296 -0.2321 -0.4486  0.9368
  919TIP3    H224317   0.893   4.709   0.232 -0.2025  0.1849  0.1661
  920TIP3   OH224318   6.731   4.623   0.359  0.1284  0.3309  0.0873
  920TIP3    H124319   6.718   4.680   0.283 -0.6198  0.2546  0.1526
  920TIP3    H224320   6.788   4.553   0.327  0.1636  0.5291 -0.2909
  921TIP3   OH224321   0.674   3.576   8.134  0.6364 -0.2548 -0.3328
  921TIP3    H124322   0.620   3.575   8.213  0.3192 -2.0880 -0.5252
  921TIP3    H224323   0.737   3.505   8.147  0.2522 -0.9275 -1.9219
  922TIP3   OH224324   5.503   5.745   0.737 -0.6542 -0.2454 -0.7390
  922TIP3    H124325   5.441   5.769   0.806 -1.0129  1.9780 -1.7487
  922TIP3    H224326   5.488   5.810   0.668 -0.0478 -2.1524 -2.7748
  923TIP3   OH224327   2.468   0.345   1.519  0.5309 -0.2588  0.2685
  923TIP3    H124328   2.399   0.382   1.464  1.1332  0.8160  0.2090
  923TIP3    H224329   2.548   0.387   1.488  0.7422  1.5039  2.8924
  924TIP3   OH224330   1.855   3.778   2.332  0.0563 -0.3222  0.1708
  924TIP3    H124331   1.826   3.748   2.418  0.1590  0.3325  0.4424
  924TIP3    H224332   1.853   3.874   2.338 -0.2514 -0.2704 -0.6620
  925TIP3   OH224333   0.072   4.271   7.798 -0.4784 -0.1704 -0.0279
  925TIP3    H124334   0.141   4.320   7.752 -0.8817 -0.5438 -1.0629
  925TIP3    H224335   0.098   4.179   7.789 -1.2376 -0.3347 -0.6719
  926TIP3   OH224336   5.247   6.320   0.104  0.4981  0.5552 -0.1056
  926TIP3    H124337   5.342   6.328   0.108  0.5459  0.0865 -0.2790
  926TIP3    H224338   5.225   6.340   0.013  0.5303 -0.3446 -0.3157
  927TIP3   OH224339   2.103   4.352   8.158  0.3433 -0.5411 -0.2654
  927TIP3    H124340   2.081   4.263   8.188 -1.2373 -1.7792 -4.3954
  927TIP3    H224341   2.180   4.341   8.103 -0.0497  0.5961 -1.0723
  928TIP3   OH224342   2.978   2.382   1.448  0.6460  0.0593 -0.5036
  928TIP3    H124343   2.997   2.435   1.371  2.0421 -0.3353 -0.4609
  928TIP3    H224344   3.064   2.363   1.486  0.3161 -2.8625 -0.9617
  929TIP3   OH224345   1.187   3.095   0.713 -0.4265 -0.1885 -0.0063
  929TIP3    H124346   1.279   3.111   0.737  0.1890 -2.1113 -0.8850
  929TIP3    H224347   1.137   3.139   0.781  1.1670 -0.3984  1.3902
  930TIP3   OH224348   4.685   1.761   0.371 -0.0396 -0.2956  0.4148
  930TIP3    H124349   4.641   1.685   0.333 -1.7736  0.7580  0.2235
  930TIP3    H224350   4.639   1.836   0.336  3.0338  1.0251 -1.1505
  931TIP3   OH224351   6.402   6.689   1.141  0.2818  0.4396 -0.0952
  931TIP3    H124352   6.346   6.617   1.172 -0.5665  0.1529 -2.1079
  931TIP3    H224353   6.485   6.675   1.186 -0.7515 -0.0466  1.8036
  932TIP3   OH224354   3.165   6.592   2.179 -0.1451  0.3523 -0.4334
  932TIP3    H124355   3.236   6.594   2.243 -0.0701  2.0349 -0.5381
  932TIP3    H224356   3.192   6.525   2.115  1.3749  0.9956 -0.4931
  933TIP3   OH224357   4.111   3.519   8.371 -0.6712  0.6837  0.3229
  933TIP3    H124358   4.181   3.531   8.435 -1.8943  0.6395  1.7135
  933TIP3    H224359   4.080   3.607   8.352 -0.9826  0.6320  0.5793
  934TIP3   OH224360   1.381   1.060   1.964 -0.3926 -0.5336 -0.4942
  934TIP3    H124361   1.332   0.989   2.006 -0.6907 -1.2632 -2.0012
  934TIP3    H224362   1.472   1.045   1.990 -0.8388  0.4933  1.8566
  935TIP3   OH224363   2.640   6.132   7.521 -0.3683 -0.0228  0.1458
  935TIP3    H124364   2.683   6.156   7.440  0.7637  0.0056  0.7442
  935TIP3    H224365   2.549   6.114   7.495 -0.3871  1.3710 -0.8920
  936TIP3   OH224366   1.991   1.947   8.835 -0.1334  0.0947  0.3435
  936TIP3    H124367   2.047   2.018   8.804  0.6314  0.6507  2.7649
  936TIP3    H224368   1.930   1.931   8.763  1.5279  1.1808 -1.4054
  937TIP3   OH224369   5.570   2.586   8.264  0.2301 -0.1683 -0.0114
  937TIP3    H124370   5.555   2.492   8.256  0.2165 -0.1858  0.2303
  937TIP3    H224371   5.516   2.613   8.338  0.9200 -0.1226  0.4822
  938TIP3   OH224372   4.748   0.951   3.011 -0.0536 -0.3956  0.2396
  938TIP3    H124373   4.728   0.932   2.919 -0.7477  0.7309  0.1380
  938TIP3    H224374   4.747   0.866   3.054  1.3474 -1.0884 -0.9775
  939TIP3   OH224375   6.383   0.493   1.553 -0.3036  0.4341  0.3527
  939TIP3    H124376   6.418   0.544   1.626  3.6202 -1.6244  0.1836
  939TIP3    H224377   6.396   0.549   1.477  1.6468  0.2078  0.4763
  940TIP3   OH224378   5.633   4.634   1.152 -1.1377  0.4330 -0.0981
  940TIP3    H124379   5.674   4.720   1.137 -0.0234 -0.1829 -0.6975
  940TIP3    H224380   5.630   4.626   1.248  0.3600  0.4332 -0.0173
  941TIP3   OH224381   3.268   2.525   8.164 -0.2838 -0.2620 -0.5297
  941TIP3    H124382   3.242   2.472   8.088 -0.0247  1.3809 -1.8213
  941TIP3    H224383   3.339   2.475   8.205 -3.4230 -3.5657  1.5327
  942TIP3   OH224384   5.026   3.397   8.497 -0.0102  0.1099 -0.0883
  942TIP3    H124385   4.957   3.333   8.510  0.5237 -0.6785 -1.0620
  942TIP3    H224386   4.980   3.480   8.484 -0.7486 -0.3026 -0.1313
  943TIP3   OH224387   3.212   5.355   8.146  0.2840 -0.0601 -0.3275
  943TIP3    H124388   3.176   5.366   8.234 -1.5817 -3.5303 -0.4996
  943TIP3    H224389   3.286   5.295   8.157  0.7134  0.3299 -1.0237
  944TIP3   OH224390   2.211   3.757   3.321  0.4949  0.3738 -0.3633
  944TIP3    H124391   2.284   3.804   3.361  0.5780 -0.0033 -0.0719
  944TIP3    H224392   2.133   3.791   3.364  0.3353  1.9557 -1.7849
  945TIP3   OH224393   0.740   2.544   0.683  0.0389 -0.3607 -0.4206
  945TIP3    H124394   0.693   2.621   0.716  2.6315  1.3511 -0.4118
  945TIP3    H224395   0.808   2.581   0.626  1.8489 -2.5797  0.1729
  946TIP3   OH224396   1.714   3.103   0.275  0.1874 -0.8328  0.2721
  946TIP3    H124397   1.799   3.086   0.235  0.1484  0.0774 -0.2022
  946TIP3    H224398   1.733   3.118   0.368  0.8571  1.7062 -0.2105
  947TIP3   OH224399   4.187   0.361   2.415  0.0868 -0.1500 -0.4826
  947TIP3    H124400   4.151   0.438   2.459 -0.7822 -1.1972  0.7617
  947TIP3    H224401   4.216   0.392   2.330 -2.8126  1.0409 -1.1694
  948TIP3   OH224402   6.356   3.250   2.584 -0.2843  0.2581  0.5297
  948TIP3    H124403   6.337   3.325   2.641 -2.5472 -0.7246  1.1730
  948TIP3    H224404   6.382   3.181   2.645  0.9251  0.2346  0.0098
  949TIP3   OH224405   2.519   6.687   2.477  0.6944  0.2236 -0.1489
  949TIP3    H124406   2.468   6.695   2.558  1.0050 -0.0574  0.0735
  949TIP3    H224407   2.563   6.602   2.484  0.4925  0.0665 -0.7462
  950TIP3   OH224408   1.063   5.517   8.212 -0.0284  0.3579  0.0201
  950TIP3    H124409   1.075   5.522   8.118 -0.4638 -1.0286 -0.1406
  950TIP3    H224410   1.005   5.441   8.225 -0.6180  0.9914  1.3421
  951TIP3   OH224411   4.244   1.300   0.915  0.2824  0.1645  0.0814
  951TIP3    H124412   4.308   1.370   0.927 -0.6499  0.9968  0.3310
  951TIP3    H224413   4.277   1.249   0.840  0.8682  0.9881 -0.2262
  952TIP3   OH224414   3.196   3.057   2.281 -0.6719 -0.3549 -0.1942
  952TIP3    H124415   3.178   2.964   2.297 -1.6205  0.0919  1.6281
  952TIP3    H224416   3.127   3.085   2.222 -1.5934 -0.3894  0.8256
  953TIP3   OH224417   6.384   2.469   0.725  0.0429 -0.2417  0.2292
  953TIP3    H124418   6.290   2.475   0.740 -0.0851 -1.4271  0.0109
  953TIP3    H224419   6.412   2.559   0.710 -1.3806 -0.0539 -1.6622
  954TIP3   OH224420   5.168   6.577   0.638 -0.6582 -0.6022 -0.2670
  954TIP3    H124421   5.147   6.500   0.691 -2.1438 -0.3113 -0.3716
  954TIP3    H224422   5.091   6.589   0.582 -0.6313  1.1809  0.0144
  955TIP3   OH224423   5.734   4.163   2.593 -0.7859 -0.0730  0.3730
  955TIP3    H124424   5.756   4.225   2.662  2.6354 -0.4870 -0.1824
  955TIP3    H224425   5.784   4.084   2.615  0.4366 -0.2100 -2.4886
  956TIP3   OH224426   0.162   1.454   1.505 -0.4649  0.7930  0.1780
  956TIP3    H124427   0.094   1.387   1.506  0.4128 -0.1251  0.2468
  956TIP3    H224428   0.195   1.456   1.595  1.9918 -1.3480 -0.5426
  957TIP3   OH224429   2.067   0.402   2.318  0.3435  0.4082 -0.6121
  957TIP3    H124430   2.006   0.385   2.390  0.9981 -2.6751 -0.6464
  957TIP3    H224431   2.018   0.380   2.239  0.6203  0.7044 -0.8692
  958TIP3   OH224432   3.073   3.310   0.403  0.1750  0.6002  0.4374
  958TIP3    H124433   3.103   3.383   0.348  0.1448  0.8814  0.7873
  958TIP3    H224434   2.983   3.334   0.427 -0.0249  0.1814  0.1038
  959TIP3   OH224435   4.687   0.964   2.069  0.0125  0.5754 -0.1283
  959TIP3    H124436   4.670   1.058   2.080 -1.9767  0.3338 -0.6450
  959TIP3    H224437   4.736   0.939   2.147 -0.3997  1.8254  0.5662
  960TIP3   OH224438   0.850   0.390   0.427  0.8375 -0.1886 -0.0850
  960TIP3    H124439   0.834   0.461   0.490  0.0820 -2.0827  1.9893
  960TIP3    H224440   0.784   0.403   0.359  0.9988  1.3288  0.0124
  961TIP3   OH224441   5.955   1.177   2.071  0.2394  0.0255  0.1191
  961TIP3    H124442   5.916   1.247   2.019  0.0201 -0.3426 -0.2191
  961TIP3    H224443   6.040   1.162   2.031 -0.6823 -1.5915 -1.4227
  962TIP3   OH224444   3.278   5.356   1.912  0.4259 -0.7000  0.7498
  962TIP3    H124445   3.289   5.448   1.937  0.2039 -0.9370  1.7959
  962TIP3    H224446   3.265   5.358   1.817  0.5908  0.3303  0.7341
  963TIP3   OH224447   5.037   4.299   1.171 -0.5511  0.2149 -0.1436
  963TIP3    H124448   4.962   4.358   1.181 -2.2767 -1.5422 -1.7954
  963TIP3    H224449   5.009   4.218   1.214 -0.7392 -1.3031 -2.8556
  964TIP3   OH224450   2.775   1.189   3.086  0.1180  0.2694  0.1006
  964TIP3    H124451   2.704   1.138   3.047  1.0074 -0.7068 -0.2837
  964TIP3    H224452   2.853   1.162   3.038  0.8487  0.8765  0.9206
  965TIP3   OH224453   6.402   6.476   2.380 -0.1322  0.0543  0.2889
  965TIP3    H124454   6.346   6.551   2.401  1.2397  0.9457  0.8477
  965TIP3    H224455   6.406   6.425   2.461  0.0696  0.1254  0.3236
  966TIP3   OH224456   0.441   5.312   8.784  0.0099  0.3802 -0.0974
  966TIP3    H124457   0.394   5.306   8.867  1.0611  3.4144  0.8349
  966TIP3    H224458   0.522   5.263   8.798 -1.0629 -1.5560 -0.3844
  967TIP3   OH224459   5.464   4.955   2.721 -0.4638 -0.2945  0.2036
  967TIP3    H124460   5.485   4.879   2.667 -0.9019 -0.1994 -0.1064
  967TIP3    H224461   5.543   5.009   2.719 -0.6785  0.0039 -0.8438
  968TIP3   OH224462   5.831   1.555   2.432 -0.2204  0.3832  0.0159
  968TIP3    H124463   5.890   1.484   2.457 -0.5179  0.3010  0.4842
  968TIP3    H224464   5.875   1.635   2.461 -0.0925  0.3613 -0.1155
  969TIP3   OH224465   3.942   2.478   2.337  0.4176 -0.1766 -0.3617
  969TIP3    H124466   3.875   2.525   2.287  0.4611 -1.6461 -1.8788
  969TIP3    H224467   3.907   2.475   2.426 -1.2396 -0.3127 -0.9762
  970TIP3   OH224468   1.541   2.868   0.490 -0.4776 -0.0106  0.0506
  970TIP3    H124469   1.521   2.961   0.476 -2.1191 -0.5992 -2.1256
  970TIP3    H224470   1.632   2.859   0.462 -0.1310  1.0120  0.7790
  971TIP3   OH224471   2.788   6.110   8.760  0.1205  0.8746  0.5591
  971TIP3    H124472   2.824   6.094   8.673  2.2981 -0.2657  1.5711
  971TIP3    H224473   2.791   6.205   8.771  0.4762  0.9768 -0.3591
  972TIP3   OH224474   3.606   2.372   2.079 -0.0396 -0.4811 -0.2902
  972TIP3    H124475   3.556   2.379   1.997 -0.3235  0.2289 -0.0606
  972TIP3    H224476   3.697   2.359   2.050 -0.1035 -0.0045 -0.7315
  973TIP3   OH224477   0.423   0.691   1.926  0.2527  0.8432 -0.0153
  973TIP3    H124478   0.388   0.775   1.957  0.3332  0.9179 -0.1262
  973TIP3    H224479   0.453   0.709   1.837 -1.1952  0.2976 -0.6428
  974TIP3   OH224480   3.028   2.492   0.549  0.0914  0.1423 -0.4249
  974TIP3    H124481   2.940   2.473   0.581  0.1927 -1.3948 -0.9544
  974TIP3    H224482   3.019   2.493   0.454  0.7094 -0.4790 -0.4983
  975TIP3   OH224483   1.987   2.361   0.677  0.5756 -0.5306 -0.0686
  975TIP3    H124484   2.052   2.294   0.659  0.1097 -1.2439  0.8241
  975TIP3    H224485   1.908   2.331   0.633  0.5839 -0.1348 -0.3652
  976TIP3   OH224486   5.087   2.733   1.625  0.8225 -0.0282 -0.2494
  976TIP3    H124487   5.065   2.680   1.702  1.3264 -0.2559 -0.2534
  976TIP3    H224488   5.112   2.818   1.662  0.5202  0.0389 -0.2015
  977TIP3   OH224489   1.518   2.759   2.000 -0.2799  0.2206 -0.3999
  977TIP3    H124490   1.535   2.826   2.067 -0.2014  0.2534 -0.4520
  977TIP3    H224491   1.605   2.740   1.963 -0.2020 -0.4151  0.0942
  978TIP3   OH224492   4.577   1.146   1.452 -0.7565 -0.4702  0.0538
  978TIP3    H124493   4.508   1.212   1.464 -0.8220 -0.6055  0.4537
  978TIP3    H224494   4.659   1.194   1.461 -0.7971 -0.3119 -0.4038
  979TIP3   OH224495   1.831   1.168   8.357 -0.3662  0.1601  0.1250
  979TIP3    H124496   1.857   1.222   8.282  0.6783  0.2969  0.5689
  979TIP3    H224497   1.913   1.147   8.401 -0.7436 -1.8230 -0.0443
  980TIP3   OH224498   0.174   4.543   8.169 -0.3591  0.2545 -0.0362
  980TIP3    H124499   0.252   4.540   8.225  0.1862  0.9931 -0.7284
  980TIP3    H224500   0.194   4.609   8.103 -1.1447 -0.3009 -0.8699
  981TIP3   OH224501   0.052   3.908   7.825  0.5348 -0.1163 -0.3234
  981TIP3    H124502  -0.030   3.956   7.812 -0.2816 -0.6191  2.4111
  981TIP3    H224503   0.120   3.975   7.813 -0.4778  1.2633  1.1766
  982TIP3   OH224504   1.764   2.728   8.252 -0.1466  0.2397  0.3546
  982TIP3    H124505   1.753   2.822   8.267 -2.0224  0.2625 -0.9106
  982TIP3    H224506   1.679   2.698   8.219  0.7372 -1.7025 -0.3251
  983TIP3   OH224507   1.775   4.207   3.154  0.0044  0.5022 -0.1592
  983TIP3    H124508   1.762   4.302   3.162  1.9628  0.7266  1.1949
  983TIP3    H224509   1.835   4.197   3.081 -1.8321  0.0777 -1.6841
  984TIP3   OH224510   5.921   3.288   1.921 -0.1891  0.7236 -0.8307
  984TIP3    H124511   5.953   3.276   2.010 -0.0770  0.2113 -0.9312
  984TIP3    H224512   5.837   3.333   1.931 -1.2470 -1.2469 -0.3001
  985TIP3   OH224513   6.591   0.462   0.454  0.5035  0.4487 -0.5697
  985TIP3    H124514   6.508   0.415   0.448 -0.0303  1.4712 -1.7343
  985TIP3    H224515   6.645   0.409   0.513 -0.9489 -0.2624  0.1734
  986TIP3   OH224516   3.713   4.689   1.106  0.0004  0.2018 -0.3885
  986TIP3    H124517   3.750   4.765   1.062  1.0273  0.5363  0.9833
  986TIP3    H224518   3.666   4.641   1.037  0.6172  1.2703 -1.5792
  987TIP3   OH224519   6.342   3.964   3.264 -0.3350 -0.0584 -0.9013
  987TIP3    H124520   6.397   4.036   3.234 -0.8726  0.0333 -1.7066
  987TIP3    H224521   6.398   3.886   3.255  0.3774  0.2812  0.3391
  988TIP3   OH224522   3.448   1.749   1.531 -0.2633 -0.1801 -0.7032
  988TIP3    H124523   3.367   1.710   1.500 -0.3585 -0.0244 -0.6535
  988TIP3    H224524   3.475   1.695   1.604 -1.3022  0.8293  0.4819
  989TIP3   OH224525   4.306   3.836   3.066 -0.1273  0.8522  0.3588
  989TIP3    H124526   4.371   3.874   3.125  0.9814 -0.5617  0.1142
  989TIP3    H224527   4.232   3.896   3.070  1.2399  2.6141  0.5346
  990TIP3   OH224528   2.503   4.078   2.525 -0.8179  0.3100  0.4268
  990TIP3    H124529   2.542   4.008   2.473  0.6731  0.5983  1.1229
  990TIP3    H224530   2.464   4.032   2.599  0.4986  0.2153  1.0887
  991TIP3   OH224531   2.052   1.958   2.610  0.2735  0.6036  0.1946
  991TIP3    H124532   2.097   1.878   2.638  0.8020  0.8042 -0.0678
  991TIP3    H224533   1.975   1.963   2.666 -0.3693 -0.6877 -0.5310
  992TIP3   OH224534   0.315   5.439   0.123 -0.2622 -0.4009 -0.7543
  992TIP3    H124535   0.385   5.503   0.126 -0.7808  0.1207  0.8705
  992TIP3    H224536   0.332   5.380   0.197 -0.5725 -1.3151 -1.3859
  993TIP3   OH224537   6.604   4.228   1.368  0.1378 -0.5914  0.2026
  993TIP3    H124538   6.650   4.245   1.449  1.4354 -0.4240 -0.5511
  993TIP3    H224539   6.550   4.151   1.387 -2.0412  1.2543  2.1439
  994TIP3   OH224540   1.233   3.099   8.394 -0.0797  0.2758  0.3706
  994TIP3    H124541   1.238   3.131   8.484 -0.9472 -1.4137  1.0647
  994TIP3    H224542   1.301   3.032   8.388  0.5186  0.9406 -0.4986
  995TIP3   OH224543   1.886   5.623   1.066 -0.0108 -0.0462 -0.2179
  995TIP3    H124544   1.960   5.684   1.069  0.1845 -0.2566  2.8111
  995TIP3    H224545   1.815   5.673   1.025  1.2574  0.7945 -1.4740
  996TIP3   OH224546   6.482   3.047   8.492 -0.5471  0.2987  0.4270
  996TIP3    H124547   6.536   2.974   8.521 -0.6255 -0.6549 -1.6626
  996TIP3    H224548   6.436   3.014   8.415 -0.0520  2.7585 -1.0296
  997TIP3   OH224549   3.979   2.213   7.281 -0.2367 -0.7475  0.1040
  997TIP3    H124550   3.946   2.220   7.371  0.9078 -1.1995  0.5738
  997TIP3    H224551   3.916   2.155   7.238 -0.2393 -1.3864  0.9154
  998TIP3   OH224552   0.843   5.399   7.456  0.3812  0.1198  0.4693
  998TIP3    H124553   0.919   5.438   7.500  1.1566 -2.6008  1.7653
  998TIP3    H224554   0.862   5.305   7.453 -3.6486 -1.0435  2.6070
  999TIP3   OH224555   3.427   1.329   2.568 -0.5332 -0.3715  0.0345
  999TIP3    H124556   3.420   1.332   2.663 -0.7872  0.0250  0.0039
  999TIP3    H224557   3.505   1.381   2.548 -1.4891  1.0751 -0.0855
 1000TIP3   OH224558   1.597   6.303   8.073  0.1939 -0.4072  0.0262
 1000TIP3    H124559   1.507   6.329   8.056 -1.7738 -4.5803  2.3813
 1000TIP3    H224560   1.622   6.351   8.152  0.6372  1.6256 -1.2586
 1001TIP3   OH224561   4.127   2.581   8.878 -0.2540 -0.3737 -0.3828
 1001TIP3    H124562   4.171   2.664   8.899 -0.4127 -0.6303  1.0252
 1001TIP3    H224563   4.194   2.527   8.837  0.5721 -0.5051  1.1114
 1002TIP3   OH224564   5.623   2.565   0.021 -0.1495  0.0921 -0.0789
 1002TIP3    H124565   5.566   2.510   0.074 -0.2414  0.9507  0.7261
 1002TIP3    H224566   5.662   2.504  -0.042 -0.9378 -0.7333  0.2010
 1003TIP3   OH224567   2.650   2.757   2.422  0.2298  0.2021  0.5732
 1003TIP3    H124568   2.698   2.680   2.391 -1.6671 -0.6590 -0.4435
 1003TIP3    H224569   2.635   2.809   2.343  1.2611  1.5209  1.2130
 1004TIP3   OH224570   1.836   1.896   7.523  0.0512 -0.0911 -0.5847
 1004TIP3    H124571   1.763   1.834   7.531  0.3884 -0.4373 -0.1756
 1004TIP3    H224572   1.850   1.903   7.428  0.0169 -0.6528 -0.6356
 1005TIP3   OH224573   3.625   4.439   0.996  0.0557 -0.2257 -0.7407
 1005TIP3    H124574   3.657   4.375   0.932 -0.5985 -1.7813  0.4397
 1005TIP3    H224575   3.617   4.391   1.078 -1.4149  1.1118 -0.0288
 1006TIP3   OH224576   0.823   4.194   2.461 -0.4970  0.0158 -0.0925
 1006TIP3    H124577   0.773   4.270   2.491 -1.9403 -0.7632 -0.4825
 1006TIP3    H224578   0.779   4.166   2.382  1.0905 -0.1825 -0.9439
 1007TIP3   OH224579   6.364   5.157   2.481  0.2775 -0.2906 -0.4884
 1007TIP3    H124580   6.299   5.088   2.472 -0.7126 -0.0589  3.2891
 1007TIP3    H224581   6.443   5.121   2.440 -0.8013 -2.7013 -0.5820
 1008TIP3   OH224582   3.753   5.636   0.703  0.3421  0.5464 -0.0303
 1008TIP3    H124583   3.772   5.710   0.760 -1.6264  1.9144 -1.0292
 1008TIP3    H224584   3.795   5.658   0.620 -0.3501  0.6211 -0.3681
 1009TIP3   OH224585   4.351   0.879   2.483 -0.4208 -0.1419  0.2499
 1009TIP3    H124586   4.309   0.825   2.416 -0.5129 -0.6178  0.6782
 1009TIP3    H224587   4.384   0.815   2.547  0.3673  0.2534  0.2577
 1010TIP3   OH224588   4.756   0.639   8.827  0.0367  0.0607  0.6041
 1010TIP3    H124589   4.689   0.684   8.879 -1.1336  0.7647 -1.4102
 1010TIP3    H224590   4.835   0.646   8.880 -0.8541  1.6522  1.8316
 1011TIP3   OH224591   2.670   0.815   0.041 -0.1940 -0.9199  0.2352
 1011TIP3    H124592   2.628   0.796   0.125 -0.0772  0.4572  0.6142
 1011TIP3    H224593   2.636   0.900   0.016  2.5137  0.3735  0.6651
 1012TIP3   OH224594   1.354   5.154   2.579 -0.4646  0.1842  0.3357
 1012TIP3    H124595   1.446   5.179   2.579 -0.3640 -0.1840 -0.2388
 1012TIP3    H224596   1.312   5.218   2.637  0.4541 -0.8450  2.2063
 1013TIP3   OH224597   4.471   5.319   8.749  0.3499 -0.5915 -0.2438
 1013TIP3    H124598   4.415   5.244   8.729 -2.8576  1.2094  1.2717
 1013TIP3    H224599   4.487   5.360   8.664 -1.5616 -0.6046 -0.6590
 1014TIP3   OH224600   1.661   6.360   0.122  0.2573 -0.1475  0.6522
 1014TIP3    H124601   1.633   6.437   0.171 -1.0663 -0.5188  0.5203
 1014TIP3    H224602   1.665   6.389   0.031  0.3924 -0.0650  0.6848
 1015TIP3   OH224603   6.715   5.015   3.178 -0.7453  0.5220  0.3026
 1015TIP3    H124604   6.635   4.971   3.148 -0.3098  1.0450 -1.8429
 1015TIP3    H224605   6.785   4.953   3.160 -0.5616  0.4727  1.1820
 1016TIP3   OH224606   2.907   6.704   3.062  0.2754  0.2948  0.4332
 1016TIP3    H124607   2.853   6.662   2.995  0.6199 -1.2941  1.0873
 1016TIP3    H224608   2.989   6.725   3.017 -0.4971  1.8330 -0.3179
 1017TIP3   OH224609   5.663   0.113   1.727  0.4145 -0.0853  0.2040
 1017TIP3    H124610   5.641   0.203   1.704  0.1265 -0.1533  0.2041
 1017TIP3    H224611   5.662   0.111   1.822 -3.7616 -1.0266  0.3448
 1018TIP3   OH224612   3.541   0.117   1.876  0.3214 -0.2957 -0.2870
 1018TIP3    H124613   3.592   0.036   1.876  1.6801  0.5064 -1.1148
 1018TIP3    H224614   3.450   0.088   1.873  0.7930 -1.8164 -1.9336
 1019TIP3   OH224615   4.689   3.089   0.146 -0.3242 -0.0329 -0.4085
 1019TIP3    H124616   4.628   3.024   0.111  1.1391 -2.4801  1.2851
 1019TIP3    H224617   4.646   3.123   0.224 -0.5846  0.1166 -0.6163
 1020TIP3   OH224618   1.204   5.072   8.550  0.1443  0.3715  0.2549
 1020TIP3    H124619   1.236   5.081   8.461 -2.6730  1.6776 -0.7441
 1020TIP3    H224620   1.253   4.999   8.586  2.2501  0.6026 -1.9216
 1021TIP3   OH224621   2.749   4.660   0.982 -0.1969  0.5452  0.2460
 1021TIP3    H124622   2.843   4.654   0.971  0.0482  0.4096  2.2008
 1021TIP3    H224623   2.715   4.576   0.952  0.7243 -0.9788  3.1179
 1022TIP3   OH224624   0.992   0.174   2.338  0.1456  0.0926  0.1667
 1022TIP3    H124625   0.898   0.176   2.320  0.0110  0.1994  0.8239
 1022TIP3    H224626   1.003   0.103   2.401  0.5381 -0.0662 -0.0777
 1023TIP3   OH224627   2.152   6.507   1.891 -0.3211 -0.3260 -0.3098
 1023TIP3    H124628   2.098   6.428   1.881  0.0255 -0.4226 -1.6396
 1023TIP3    H224629   2.236   6.484   1.851  1.4345 -0.7879  3.2536
 1024TIP3   OH224630   4.128   2.401   0.247  0.1393  0.1891  0.5144
 1024TIP3    H124631   4.136   2.398   0.152 -0.7562  2.3759  0.3129
 1024TIP3    H224632   4.144   2.492   0.270 -1.9863  0.2360  2.1995
 1025TIP3   OH224633   0.755   5.520   8.886  0.2331 -0.0843  0.4295
 1025TIP3    H124634   0.848   5.503   8.869  0.1152  0.5263 -0.9644
 1025TIP3    H224635   0.720   5.544   8.801 -1.3187 -0.7625  0.8462
 1026TIP3   OH224636   3.194   1.073   1.678 -0.3318  0.1363 -0.0021
 1026TIP3    H124637   3.227   1.022   1.752 -0.7522 -0.0044  0.0882
 1026TIP3    H224638   3.216   1.164   1.700 -0.3590  0.0837  0.2452
 1027TIP3   OH224639   0.533   3.638   8.784 -0.5525  0.3323 -0.1566
 1027TIP3    H124640   0.496   3.565   8.735 -1.8687 -1.1795  2.7874
 1027TIP3    H224641   0.613   3.662   8.737 -0.9972 -1.8600 -2.1669
 1028TIP3   OH224642   5.067   5.819   1.651 -0.4380  0.2180  0.1885
 1028TIP3    H124643   5.007   5.830   1.578 -0.4120 -2.8511 -0.4366
 1028TIP3    H224644   5.119   5.899   1.653 -1.1631  0.8393 -2.4756
 1029TIP3   OH224645   6.028   6.113   8.374  0.7888  0.0174 -0.1451
 1029TIP3    H124646   6.037   6.187   8.434  0.8351 -0.0340 -0.0871
 1029TIP3    H224647   5.939   6.080   8.389  1.2759 -0.8950  0.9570
 1030TIP3   OH224648   0.530   4.307   0.711 -0.1278  0.0891 -0.1179
 1030TIP3    H124649   0.602   4.370   0.716  0.0304 -0.1381  0.4502
 1030TIP3    H224650   0.468   4.335   0.777 -0.4935  0.1869 -0.4949
 1031TIP3   OH224651   1.008   5.143   1.182  0.1682 -0.0625 -0.2589
 1031TIP3    H124652   1.047   5.222   1.220  1.1824 -0.4647 -0.4142
 1031TIP3    H224653   1.058   5.071   1.219 -0.9005 -0.6605  0.0565
 1032TIP3   OH224654   3.856   1.308   7.431  0.1368  0.7493  0.2446
 1032TIP3    H124655   3.782   1.272   7.481  0.2437  0.1044 -0.0448
 1032TIP3    H224656   3.820   1.323   7.344 -0.3653  2.9632  0.7764
 1033TIP3   OH224657   3.074   0.673   1.379 -0.3991 -0.2626 -0.1580
 1033TIP3    H124658   3.090   0.620   1.302 -2.0720  0.3763 -0.9914
 1033TIP3    H224659   3.118   0.756   1.361  1.6752 -1.0599  0.8747
 1034TIP3   OH224660   2.425   6.003   7.427  0.5417 -0.3349 -0.5652
 1034TIP3    H124661   2.419   5.912   7.458  1.9485 -0.2460  0.0604
 1034TIP3    H224662   2.429   5.995   7.331 -1.6962 -0.7480 -0.6772
 1035TIP3   OH224663   3.621   0.224   1.219 -0.5280 -0.4091 -0.6470
 1035TIP3    H124664   3.654   0.153   1.164  1.7802 -0.4183  0.6230
 1035TIP3    H224665   3.632   0.302   1.166  1.5949 -0.4272 -0.2942
 1036TIP3   OH224666   4.965   2.520   1.870  0.3355  0.0002 -0.3853
 1036TIP3    H124667   4.958   2.469   1.951  0.1712  0.1620 -0.2958
 1036TIP3    H224668   5.034   2.477   1.821  0.7018  0.1329  0.0096
 1037TIP3   OH224669   0.200   3.042   0.003  0.0577  0.0049 -0.1753
 1037TIP3    H124670   0.206   3.068  -0.089 -0.6348 -0.7444 -0.4478
 1037TIP3    H224671   0.107   3.048   0.024  0.3598  1.5323  0.9151
 1038TIP3   OH224672   4.343   6.521   2.683  0.3188  0.1392 -0.2264
 1038TIP3    H124673   4.383   6.577   2.749 -0.3523  1.2376 -0.7364
 1038TIP3    H224674   4.333   6.576   2.606 -2.0308 -0.1049 -0.1682
 1039TIP3   OH224675   4.967   3.446   8.119  0.0893  0.0070 -0.3764
 1039TIP3    H124676   4.921   3.424   8.201 -0.7111 -1.1712 -1.1003
 1039TIP3    H224677   4.958   3.541   8.111  0.1683  0.1425  0.8904
 1040TIP3   OH224678   2.275   6.502   2.696 -0.0606  0.2759 -0.0078
 1040TIP3    H124679   2.215   6.430   2.714 -0.0976  0.4770  0.6699
 1040TIP3    H224680   2.362   6.462   2.699 -0.0693  0.2972  0.5635
 1041TIP3   OH224681   0.700   3.872   7.216  0.2991 -0.2028  0.0806
 1041TIP3    H124682   0.665   3.853   7.303  1.4624 -0.8137  0.4279
 1041TIP3    H224683   0.682   3.792   7.165  1.1995 -0.5506  0.2812
 1042TIP3   OH224684   6.450   5.955   2.480 -0.2360 -0.2714 -0.4895
 1042TIP3    H124685   6.391   5.903   2.535 -1.6923  0.2854 -1.4742
 1042TIP3    H224686   6.471   5.898   2.407 -0.0603 -0.2412 -0.4627
 1043TIP3   OH224687   2.491   4.334   2.430  0.2318 -0.2660  0.4753
 1043TIP3    H124688   2.575   4.360   2.393  0.5889 -3.0791 -0.8994
 1043TIP3    H224689   2.503   4.243   2.457 -1.8602 -0.1784  1.9402
 1044TIP3   OH224690   1.225   2.928   8.177  0.2762 -0.4314  0.0876
 1044TIP3    H124691   1.303   2.983   8.182  0.3091 -0.4896  0.2171
 1044TIP3    H224692   1.247   2.851   8.229 -0.0082 -0.2813  0.4323
 1045TIP3   OH224693   2.946   4.258   0.117  0.1427 -0.4570 -0.3084
 1045TIP3    H124694   2.926   4.264   0.211  0.4186 -0.6001 -0.2391
 1045TIP3    H224695   3.042   4.256   0.114  0.1625  0.5732 -0.6494
 1046TIP3   OH224696   3.186   3.299   1.500  0.3767  0.7330  0.1517
 1046TIP3    H124697   3.166   3.227   1.559 -0.5763  0.4225 -0.5179
 1046TIP3    H224698   3.280   3.311   1.507  1.0091 -2.2708 -1.6032
 1047TIP3   OH224699   1.717   5.870   8.526 -0.7887 -0.5086 -0.3527
 1047TIP3    H124700   1.726   5.952   8.478  1.0194 -0.6194 -0.2800
 1047TIP3    H224701   1.660   5.891   8.600  0.2082  0.8698  0.0552
 1048TIP3   OH224702   5.209   0.523   0.497 -0.3298  0.2481 -0.0263
 1048TIP3    H124703   5.292   0.523   0.546 -0.0610  1.4116 -0.4594
 1048TIP3    H224704   5.142   0.521   0.565  0.0328  2.5240  0.4526
 1049TIP3   OH224705   2.333   4.374   8.729  0.8154  0.0483 -0.0137
 1049TIP3    H124706   2.243   4.406   8.737  0.3036 -1.5164  0.9926
 1049TIP3    H224707   2.354   4.387   8.636 -0.5858  0.1087 -0.3528
 1050TIP3   OH224708   4.999   1.658   2.506  0.1278  0.2931  0.1585
 1050TIP3    H124709   5.087   1.628   2.481  0.3700  0.4048  0.8277
 1050TIP3    H224710   5.014   1.710   2.585 -0.2180  2.6171 -1.2480
 1051TIP3   OH224711   1.819   0.060   0.217  0.0805  0.2100  0.1602
 1051TIP3    H124712   1.852   0.023   0.298  0.4616  0.8861  0.3208
 1051TIP3    H224713   1.813   0.154   0.234  0.0338  0.3432 -0.5452
 1052TIP3   OH224714   1.804   4.871   3.319 -0.0163  0.0629 -0.1238
 1052TIP3    H124715   1.895   4.881   3.291  0.4826  0.8137  1.6195
 1052TIP3    H224716   1.755   4.855   3.238  1.3592  1.7550 -1.3470
 1053TIP3   OH224717   4.775   6.484   3.051  0.1274 -0.3004 -0.4218
 1053TIP3    H124718   4.866   6.495   3.022 -0.0156 -0.4298 -0.9247
 1053TIP3    H224719   4.749   6.571   3.082 -0.5441  0.5176 -3.0689
 1054TIP3   OH224720   3.572   4.432   2.249  0.4389  0.0893  0.2216
 1054TIP3    H124721   3.606   4.345   2.229 -2.5138 -0.6519 -2.3502
 1054TIP3    H224722   3.605   4.487   2.177 -0.5575  0.2515 -0.1171
 1055TIP3   OH224723   6.323   0.322   1.831 -0.4426 -0.1626 -0.0374
 1055TIP3    H124724   6.268   0.276   1.767  1.5956 -0.7186 -1.4994
 1055TIP3    H224725   6.313   0.414   1.811 -1.5318 -0.1969  0.3213
 1056TIP3   OH224726   1.805   3.712   8.808  0.4088  0.2162  0.1589
 1056TIP3    H124727   1.842   3.719   8.720  1.2095  2.6992  0.6121
 1056TIP3    H224728   1.738   3.644   8.801  0.1399  0.6493 -2.4706
 1057TIP3   OH224729   0.189   3.638   0.947 -0.1449 -0.4200 -0.1801
 1057TIP3    H124730   0.250   3.675   0.883  0.1206 -0.5454 -0.0009
 1057TIP3    H224731   0.112   3.694   0.942  0.2560  0.1580  0.0947
 1058TIP3   OH224732   4.109   1.369   8.707  0.3983  0.1082 -0.0861
 1058TIP3    H124733   4.178   1.305   8.687  2.6305  1.2082  3.2578
 1058TIP3    H224734   4.151   1.454   8.696 -1.1274  0.8982 -0.0631
 1059TIP3   OH224735   3.594   5.324   0.191  0.4369 -0.1056 -0.6198
 1059TIP3    H124736   3.623   5.413   0.213  2.0015 -0.8225  0.3828
 1059TIP3    H224737   3.503   5.335   0.162 -0.0531  1.5838  1.3296
 1060TIP3   OH224738   6.660   6.076   3.012 -0.1189  0.2156  0.6390
 1060TIP3    H124739   6.640   6.167   3.032 -0.3576  0.6071 -1.1806
 1060TIP3    H224740   6.645   6.068   2.917  0.5923 -1.5307  0.6241
 1061TIP3   OH224741   5.095   1.327   2.648  0.0558 -0.0692 -0.4529
 1061TIP3    H124742   5.137   1.298   2.567 -0.3076  1.1251 -1.0856
 1061TIP3    H224743   5.132   1.413   2.666  2.0532 -1.2905  2.0958
 1062TIP3   OH224744   0.379   1.966   2.681 -0.2118  0.2375 -0.2225
 1062TIP3    H124745   0.459   1.938   2.726 -0.1903  0.0054 -0.4029
 1062TIP3    H224746   0.341   2.031   2.739  0.4848  0.8810 -0.4684
 1063TIP3   OH224747   0.068   0.064   7.958 -0.4346 -0.6521  0.3446
 1063TIP3    H124748   0.087   0.100   8.044  1.2664  0.3442 -0.4047
 1063TIP3    H224749   0.152   0.034   7.925 -0.9031 -0.2327 -1.3163
 1064TIP3   OH224750   4.039   0.028   2.239  0.7183 -0.0989  0.0262
 1064TIP3    H124751   4.070  -0.046   2.291  1.2318  0.0754 -0.0200
 1064TIP3    H224752   3.997  -0.011   2.163 -0.9977 -0.3839  1.0762
 1065TIP3   OH224753   4.363   1.765   2.111  0.6179  0.1011  0.1661
 1065TIP3    H124754   4.392   1.848   2.073  0.6133  0.2699  0.5247
 1065TIP3    H224755   4.394   1.699   2.050  2.0957  0.2518  0.6970
 1066TIP3   OH224756   3.649   5.388   0.642  0.3259 -0.2709 -0.1641
 1066TIP3    H124757   3.651   5.478   0.675  0.7644 -0.6871  0.9880
 1066TIP3    H224758   3.578   5.388   0.578 -0.5552  0.5959  0.7690
 1067TIP3   OH224759   6.270   0.503   0.896  0.3588 -0.2882 -0.0748
 1067TIP3    H124760   6.190   0.552   0.914  0.2486 -0.0442 -1.1490
 1067TIP3    H224761   6.280   0.445   0.971  0.1631  0.9388  0.9425
 1068TIP3   OH224762   0.872   1.936   7.488 -0.9421  0.3617 -0.1663
 1068TIP3    H124763   0.804   1.943   7.556 -0.3133 -3.9799  1.2670
 1068TIP3    H224764   0.954   1.928   7.536  0.0085  0.7299 -1.6475
 1069TIP3   OH224765   1.433   2.524   8.707  0.1248 -0.0305  0.0314
 1069TIP3    H124766   1.410   2.523   8.800  0.9970 -0.5280  0.2622
 1069TIP3    H224767   1.457   2.433   8.687  0.8994  0.2556 -0.4126
 1070TIP3   OH224768   6.772   6.734   2.285 -0.5222 -0.0788 -0.2500
 1070TIP3    H124769   6.823   6.758   2.208 -0.2824  0.2573  0.0085
 1070TIP3    H224770   6.748   6.643   2.270 -0.4102 -0.0402 -0.6834
 1071TIP3   OH224771   5.301   5.586   8.112  0.0496 -0.1175 -0.5966
 1071TIP3    H124772   5.268   5.497   8.117  1.1090 -0.4979 -0.1043
 1071TIP3    H224773   5.335   5.594   8.022 -0.0968 -0.1789 -0.6585
 1072TIP3   OH224774   0.448   5.183   7.653  0.2080  0.0058  0.4396
 1072TIP3    H124775   0.471   5.095   7.622 -3.4057 -0.4589 -1.4676
 1072TIP3    H224776   0.467   5.240   7.579 -1.3325  0.1310  0.1217
 1073TIP3   OH224777   2.805   1.283   0.452  0.7431 -0.1942  0.5137
 1073TIP3    H124778   2.804   1.299   0.358 -3.6433  1.0626  0.5576
 1073TIP3    H224779   2.771   1.194   0.461 -1.5873  0.6656  0.8549
 1074TIP3   OH224780   0.370   5.731   1.283 -0.2608  0.0633 -0.6842
 1074TIP3    H124781   0.380   5.824   1.301  0.6436  0.2001 -1.7920
 1074TIP3    H224782   0.319   5.727   1.202 -1.2004 -0.4452 -0.0905
 1075TIP3   OH224783   4.624   4.325   2.916 -0.6167  0.3368 -0.2483
 1075TIP3    H124784   4.630   4.279   2.999 -1.2783 -0.3503 -0.5620
 1075TIP3    H224785   4.700   4.296   2.866  0.2372  1.3935  0.4143
 1076TIP3   OH224786   4.556   0.618   8.186  0.0602 -0.1390  0.4531
 1076TIP3    H124787   4.621   0.665   8.238 -1.3899  2.9239 -0.2871
 1076TIP3    H224788   4.569   0.649   8.097 -1.7102 -0.2734  0.1096
 1077TIP3   OH224789   5.312   6.048   8.850 -0.3774  0.9281  0.6222
 1077TIP3    H124790   5.264   5.980   8.897 -2.1201  1.8590  0.2622
 1077TIP3    H224791   5.398   6.051   8.893 -0.4645 -1.0840  1.0086
 1078TIP3   OH224792   5.048   5.421   1.719  0.1028 -0.2663  0.4273
 1078TIP3    H124793   5.094   5.385   1.643  0.2438  0.0355  0.3661
 1078TIP3    H224794   5.109   5.409   1.792 -0.0704 -0.6425  0.5153
 1079TIP3   OH224795   4.827   6.442   8.008  0.4923  0.3189  0.0655
 1079TIP3    H124796   4.788   6.364   8.048  1.1264 -0.9078 -1.5721
 1079TIP3    H224797   4.781   6.516   8.048 -1.7674 -0.9670  0.0005
 1080TIP3   OH224798   5.399   2.661   2.197 -0.2514 -0.7153 -0.9635
 1080TIP3    H124799   5.424   2.665   2.289 -0.2961 -0.5316 -0.9602
 1080TIP3    H224800   5.418   2.748   2.162  1.7841 -1.3624 -1.6462
 1081TIP3   OH224801   0.089   1.121   0.389  0.1451 -0.4133 -0.1024
 1081TIP3    H124802   0.091   1.210   0.424  1.5762 -0.4940  0.0753
 1081TIP3    H224803   0.055   1.067   0.461  0.5943 -0.2049  0.2665
 1082TIP3   OH224804   3.179   2.542   2.947 -0.4954  0.0242 -0.1355
 1082TIP3    H124805   3.171   2.621   2.894  0.5375 -0.0693 -0.4440
 1082TIP3    H224806   3.092   2.530   2.986 -0.5063  1.6311  0.3711
 1083TIP3   OH224807   4.316   4.488   2.648  0.0781  0.4962  0.7109
 1083TIP3    H124808   4.320   4.411   2.706 -0.6230  0.3367  0.5546
 1083TIP3    H224809   4.236   4.475   2.597  1.0723  0.2579 -0.8396
 1084TIP3   OH224810   2.855   2.693   1.160 -0.0200 -0.3475 -0.2781
 1084TIP3    H124811   2.934   2.743   1.144  0.2857 -0.2680  1.3555
 1084TIP3    H224812   2.810   2.691   1.075  1.0104  0.8310 -0.8744
 1085TIP3   OH224813   0.922   3.329   8.768  0.3894 -0.3814  0.4336
 1085TIP3    H124814   1.006   3.329   8.814 -0.6617 -1.2566  2.4887
 1085TIP3    H224815   0.872   3.400   8.809  0.7884  1.6413 -2.2662
 1086TIP3   OH224816   3.048   2.803   0.009 -0.0620  0.5642 -0.2528
 1086TIP3    H124817   3.045   2.708   0.012 -0.2904  0.5739 -0.1886
 1086TIP3    H224818   3.136   2.825   0.039 -1.1015  0.5267  3.1773
 1087TIP3   OH224819   1.888   5.561   8.494  0.0819 -0.1215 -0.5611
 1087TIP3    H124820   1.896   5.472   8.529  0.2047  0.0221 -0.2240
 1087TIP3    H224821   1.807   5.595   8.533 -0.9551 -0.7092 -2.0783
 1088TIP3   OH224822   1.249   3.486   1.691 -0.1712 -0.0382  0.1071
 1088TIP3    H124823   1.250   3.582   1.685 -0.4753 -0.0778 -0.5894
 1088TIP3    H224824   1.238   3.456   1.601  1.2306 -0.7605  0.1503
 1089TIP3   OH224825   6.591   4.080   8.866 -0.1956 -0.0294  0.0273
 1089TIP3    H124826   6.651   4.026   8.814 -0.2478  0.0027 -0.0674
 1089TIP3    H224827   6.563   4.150   8.806  0.1583  0.3153  0.2577
 1090TIP3   OH224828   5.381   3.485   0.919  0.2746 -0.2670  0.5196
 1090TIP3    H124829   5.287   3.505   0.914  0.5447  0.7491 -3.0230
 1090TIP3    H224830   5.406   3.462   0.830  3.4250 -0.5364  1.3466
 1091TIP3   OH224831   2.647   5.175   8.081  0.3215  0.4317 -0.6291
 1091TIP3    H124832   2.624   5.264   8.055 -0.2403  0.2150 -0.9008
 1091TIP3    H224833   2.682   5.134   8.002  0.4752  0.3795 -0.5339
 1092TIP3   OH224834   0.881   2.931   2.480  0.0367  0.7711  0.5572
 1092TIP3    H124835   0.836   2.962   2.559  0.6270  2.8697  0.1319
 1092TIP3    H224836   0.967   2.972   2.484 -1.0677  3.9763 -2.8634
 1093TIP3   OH224837   2.660   6.614   1.611  0.3223  0.3020 -0.1748
 1093TIP3    H124838   2.619   6.563   1.681  0.5078  0.7450  0.2519
 1093TIP3    H224839   2.587   6.657   1.567  0.2856  0.7450  0.3149
 1094TIP3   OH224840   0.494   3.295   2.195  0.0619 -0.0432  0.0753
 1094TIP3    H124841   0.441   3.215   2.185  0.7938 -0.5721  0.3132
 1094TIP3    H224842   0.450   3.360   2.141  0.4682 -1.1116 -1.6084
 1095TIP3   OH224843   1.842   3.603   8.005 -0.3099  0.0700  0.2735
 1095TIP3    H124844   1.786   3.525   8.011  1.2696 -1.0528  1.0642
 1095TIP3    H224845   1.920   3.573   7.958  0.2682  1.2172  0.4708
 1096TIP3   OH224846   4.470   0.512   0.304  0.2654 -0.3008 -0.2465
 1096TIP3    H124847   4.420   0.585   0.340 -0.6722 -1.1288  0.1902
 1096TIP3    H224848   4.434   0.500   0.215  1.3628  0.6225 -0.8317
 1097TIP3   OH224849   3.418   3.315   1.931  0.4969 -0.5104 -0.2454
 1097TIP3    H124850   3.487   3.336   1.867  1.8578  1.9011  1.8573
 1097TIP3    H224851   3.360   3.390   1.930  0.2253 -0.6886  0.9500
 1098TIP3   OH224852   5.449   0.670   1.497 -0.1683  0.0484 -0.6816
 1098TIP3    H124853   5.364   0.676   1.455 -0.2822 -0.9141 -0.6008
 1098TIP3    H224854   5.504   0.734   1.451 -1.0622  1.0539 -0.3873
 1099TIP3   OH224855   1.913   0.582   7.827 -0.2225 -0.5328  0.8910
 1099TIP3    H124856   1.902   0.634   7.748 -1.4461  0.1303  1.4548
 1099TIP3    H224857   1.932   0.494   7.796 -2.0407 -0.5910 -0.1882
 1100TIP3   OH224858   0.411   3.141   0.814  0.6986  0.3367  0.1571
 1100TIP3    H124859   0.406   3.120   0.908  0.4469 -0.0179  0.0684
 1100TIP3    H224860   0.338   3.201   0.800  1.2464  1.0660  0.3533
 1101TIP3   OH224861   0.018   1.534   0.830 -0.4856 -0.5243 -0.4632
 1101TIP3    H124862   0.027   1.441   0.811 -2.8936 -1.0337  0.5876
 1101TIP3    H224863  -0.051   1.565   0.771 -1.8021 -0.1230  1.2250
 1102TIP3   OH224864   3.690   3.059   1.279  0.2329  0.6301  0.1838
 1102TIP3    H124865   3.662   2.996   1.346  0.5088  1.6804  1.3306
 1102TIP3    H224866   3.749   3.009   1.222 -0.9037 -0.5885  0.0202
 1103TIP3   OH224867   3.746   4.061   2.468  0.0172 -1.0417 -0.0917
 1103TIP3    H124868   3.839   4.066   2.450  0.0642  0.1422  0.4047
 1103TIP3    H224869   3.740   4.041   2.561 -0.1981  0.6053  0.2770
 1104TIP3   OH224870   6.396   3.794   8.838  0.3280  0.5075 -0.5052
 1104TIP3    H124871   6.306   3.820   8.818 -0.1734 -0.1701  0.7649
 1104TIP3    H224872   6.387   3.733   8.912  1.8791  0.8441 -0.0199
 1105TIP3   OH224873   5.689   5.376   6.947  0.4151  0.0231  0.2080
 1105TIP3    H124874   5.782   5.399   6.942  0.3071  0.9824  2.1029
 1105TIP3    H224875   5.644   5.449   6.906  0.4872 -0.7002 -1.2259
 1106TIP3   OH224876   6.151   5.616   2.354  0.6276  0.6637  0.5124
 1106TIP3    H124877   6.157   5.529   2.395 -0.2243  0.7047  0.7433
 1106TIP3    H224878   6.172   5.601   2.262  1.0659  0.3118  0.6678
 1107TIP3   OH224879   4.727   3.532   1.360 -0.2857  0.0180 -0.0637
 1107TIP3    H124880   4.646   3.551   1.313  0.2233  1.6410 -0.3613
 1107TIP3    H224881   4.700   3.476   1.433 -1.6807  0.5327 -0.1551
 1108TIP3   OH224882   3.127   1.962   7.566  0.1985  0.4361  0.3475
 1108TIP3    H124883   3.093   1.999   7.484  0.0803  1.9970  1.0759
 1108TIP3    H224884   3.070   1.996   7.634  1.0485  0.1642  1.2284
 1109TIP3   OH224885   5.877   1.558   0.615 -0.1402  0.4940  0.5240
 1109TIP3    H124886   5.870   1.524   0.526  2.1556 -0.8959  0.7774
 1109TIP3    H224887   5.864   1.481   0.671 -1.7514  1.3831  1.4347
 1110TIP3   OH224888   2.904   6.640   1.500 -0.4544 -0.1463 -0.7000
 1110TIP3    H124889   2.922   6.546   1.500 -1.0115 -0.2656 -1.7729
 1110TIP3    H224890   2.818   6.648   1.542 -0.0451 -0.0257  0.1369
 1111TIP3   OH224891   5.883   0.609   2.178 -0.3185 -0.4809  0.2178
 1111TIP3    H124892   5.791   0.584   2.171 -0.8321  1.6204 -2.0177
 1111TIP3    H224893   5.931   0.532   2.148 -1.4064 -1.2877  0.4899
 1112TIP3   OH224894   5.986   3.240   1.390 -0.3171  0.7101  0.2350
 1112TIP3    H124895   6.043   3.277   1.323  0.5974  0.7351  1.0112
 1112TIP3    H224896   6.009   3.287   1.471  1.1287 -1.6955  1.3343
 1113TIP3   OH224897   2.068   2.278   8.882  0.6787  0.7968 -0.2915
 1113TIP3    H124898   2.023   2.280   8.798 -0.4136 -1.4655  0.1393
 1113TIP3    H224899   2.143   2.221   8.868  0.2114 -0.0094  0.3393
 1114TIP3   OH224900   0.903   3.587   1.734  0.2399 -0.2232  0.5257
 1114TIP3    H124901   0.968   3.608   1.668 -0.3232 -0.7445 -0.2156
 1114TIP3    H224902   0.883   3.494   1.719 -1.9474  0.3259 -0.4427
 1115TIP3   OH224903   5.702   0.602   2.654  0.4246 -0.1731  0.6808
 1115TIP3    H124904   5.793   0.614   2.624 -0.0554  0.9249 -0.3933
 1115TIP3    H224905   5.693   0.661   2.728  0.6906 -0.5587  1.0240
 1116TIP3   OH224906   3.852   2.019   8.162 -0.5476 -0.0433  0.0639
 1116TIP3    H124907   3.770   2.019   8.113  0.0143 -0.0358 -0.9150
 1116TIP3    H224908   3.920   2.023   8.094  0.2456  1.4004  0.8906
 1117TIP3   OH224909   1.788   5.055   1.152 -0.0519 -0.3925 -0.3625
 1117TIP3    H124910   1.781   4.969   1.193  2.1919 -0.3914  0.1177
 1117TIP3    H224911   1.812   5.037   1.061  2.0746 -0.3084  0.1334
 1118TIP3   OH224912   4.832   6.028   0.613 -0.3850 -0.2077  0.2273
 1118TIP3    H124913   4.787   6.039   0.697  0.1410 -0.0015  0.4819
 1118TIP3    H224914   4.871   6.114   0.596 -0.1876 -0.3532 -0.0563
 1119TIP3   OH224915   6.474   0.910   2.407  0.4245  0.0073 -0.9333
 1119TIP3    H124916   6.509   0.825   2.379 -0.0442  0.1226 -1.9065
 1119TIP3    H224917   6.527   0.975   2.361 -0.9457  0.1853 -2.3512
 1120TIP3   OH224918   4.025   1.238   2.393  0.4673 -0.1934 -0.2730
 1120TIP3    H124919   4.111   1.206   2.418  0.2699 -0.7974 -0.3673
 1120TIP3    H224920   4.027   1.331   2.416  0.1736 -0.7700  2.3533
 1121TIP3   OH224921   6.476   5.941   2.068 -0.4450  0.2549 -0.5527
 1121TIP3    H124922   6.419   5.943   1.991 -1.2847 -0.1414  0.0425
 1121TIP3    H224923   6.552   5.993   2.043 -1.3245  1.2922 -1.1665
 1122TIP3   OH224924   4.793   4.528   0.019  0.5043  0.2052 -0.1002
 1122TIP3    H124925   4.855   4.457   0.035  1.4983  0.8136 -1.1102
 1122TIP3    H224926   4.843   4.593  -0.031 -0.6258  1.2291  0.0470
 1123TIP3   OH224927   0.063   2.230   2.034  0.0780  0.0364 -0.1303
 1123TIP3    H124928   0.039   2.144   1.999  0.2935 -0.0863  0.0270
 1123TIP3    H224929   0.071   2.285   1.956  0.0732 -0.1173 -0.2412
 1124TIP3   OH224930   2.625   6.732   0.737  0.0631 -0.4115  0.5638
 1124TIP3    H124931   2.668   6.674   0.675 -0.1482 -1.5873  1.4925
 1124TIP3    H224932   2.620   6.682   0.818 -0.3162  0.8258  1.3380
 1125TIP3   OH224933   2.809   5.123   2.137 -0.5315 -0.3358  0.0141
 1125TIP3    H124934   2.846   5.183   2.072 -1.3876 -0.0873 -0.2599
 1125TIP3    H224935   2.718   5.153   2.148 -0.5558 -0.7096  0.9236
 1126TIP3   OH224936   4.847   4.940   1.542  0.2494 -0.7790  0.4675
 1126TIP3    H124937   4.887   4.862   1.503  0.0733 -0.7503  0.2265
 1126TIP3    H224938   4.753   4.927   1.532  0.2137 -0.6296  0.6108
 1127TIP3   OH224939   5.240   2.979   0.450  0.0157  0.1440  0.0428
 1127TIP3    H124940   5.214   2.925   0.375 -0.7451  1.3182 -0.5633
 1127TIP3    H224941   5.178   2.955   0.519  0.5157 -0.7005  0.2240
 1128TIP3   OH224942   2.525   1.702   2.604 -0.6815 -0.2361  0.0235
 1128TIP3    H124943   2.614   1.736   2.596 -0.6477 -0.2494  0.3425
 1128TIP3    H224944   2.534   1.608   2.590 -0.8788 -0.0410 -1.6358
 1129TIP3   OH224945   4.172   6.696   1.663  0.3815 -0.3816 -0.8185
 1129TIP3    H124946   4.086   6.684   1.623  0.3050  0.0093 -0.7779
 1129TIP3    H224947   4.218   6.613   1.648 -0.1462 -0.7357 -0.4855
 1130TIP3   OH224948   2.523   5.876   0.640 -0.1926 -0.0803  0.5344
 1130TIP3    H124949   2.436   5.910   0.622 -0.3947 -1.3491 -1.1095
 1130TIP3    H224950   2.508   5.805   0.703 -0.1238  0.8182  1.5846
 1131TIP3   OH224951   5.463   1.172   0.704 -0.5179 -0.2984  0.1175
 1131TIP3    H124952   5.549   1.198   0.673 -0.3148  0.1809  1.0272
 1131TIP3    H224953   5.403   1.200   0.636  0.0497 -0.7499 -0.5857
 1132TIP3   OH224954   0.215   3.985   1.660 -0.1515 -0.2440 -0.4621
 1132TIP3    H124955   0.209   4.077   1.685 -3.7070 -0.3005 -0.6356
 1132TIP3    H224956   0.224   3.938   1.742  0.8503  0.1575 -0.3203
 1133TIP3   OH224957   0.693   2.398   7.990  0.7857 -0.2339 -0.2958
 1133TIP3    H124958   0.616   2.364   7.946  0.7574  2.3035 -2.4665
 1133TIP3    H224959   0.765   2.344   7.958  0.1713 -1.5142  0.4121
 1134TIP3   OH224960   0.424   5.374   2.775  0.2703  0.0157  0.1123
 1134TIP3    H124961   0.388   5.461   2.759 -0.4664 -0.0475  1.2722
 1134TIP3    H224962   0.356   5.330   2.826  0.8371 -1.0742 -0.0624
 1135TIP3   OH224963   5.332   0.466   8.886 -0.2838  0.7934  0.2356
 1135TIP3    H124964   5.277   0.396   8.922  0.1078  0.2168 -0.2803
 1135TIP3    H224965   5.316   0.540   8.944 -0.4906  0.2004  0.9566
 1136TIP3   OH224966   1.677   1.005   1.240  0.1122  0.1944 -0.3664
 1136TIP3    H124967   1.723   0.933   1.197  1.9341  0.5993  0.7948
 1136TIP3    H224968   1.614   1.035   1.175  1.1034 -0.7564 -1.8358
 1137TIP3   OH224969   1.938   5.195   1.344  0.4081 -0.7587  0.6231
 1137TIP3    H124970   1.994   5.128   1.383  1.6681  0.7939  1.5310
 1137TIP3    H224971   1.884   5.146   1.281  1.5489 -2.5615  0.9743
 1138TIP3   OH224972   2.974   4.274   2.284 -0.5189  0.1238  0.5381
 1138TIP3    H124973   3.060   4.234   2.278 -0.0238  0.8966  1.9826
 1138TIP3    H224974   2.912   4.203   2.267  0.3324  0.0947 -3.5257
 1139TIP3   OH224975   4.089   0.872   0.400 -0.4200 -0.5620 -0.3821
 1139TIP3    H124976   4.039   0.833   0.328 -2.7001  1.4886 -0.0569
 1139TIP3    H224977   4.051   0.833   0.479  0.1152 -0.6869 -0.1823
 1140TIP3   OH224978   1.273   2.013   1.454  0.4180  0.3797  0.3406
 1140TIP3    H124979   1.363   1.982   1.465  0.4771  0.7494  0.9519
 1140TIP3    H224980   1.225   1.977   1.528 -0.0504 -0.1738 -0.2119
 1141TIP3   OH224981   2.424   5.791   8.309 -0.0903 -0.2134  0.1855
 1141TIP3    H124982   2.388   5.814   8.223  0.9962 -0.4752 -0.3606
 1141TIP3    H224983   2.450   5.875   8.347 -0.4432 -0.1098  0.2053
 1142TIP3   OH224984   4.276   1.568   8.659  0.1938  0.5540 -0.0528
 1142TIP3    H124985   4.270   1.613   8.575  1.1334 -1.1145 -1.0679
 1142TIP3    H224986   4.350   1.611   8.703  1.4164 -0.2571 -1.2228
 1143TIP3   OH224987   5.428   0.007   1.032  0.2917  0.0327 -1.3870
 1143TIP3    H124988   5.440   0.102   1.024  0.0278  0.5186  2.1785
 1143TIP3    H224989   5.517  -0.028   1.039  0.3634  0.2618 -1.1046
 1144TIP3   OH224990   0.946   1.229   1.545  0.1284  0.0720 -0.2180
 1144TIP3    H124991   0.974   1.179   1.621  0.3310 -2.3025 -1.7413
 1144TIP3    H224992   1.026   1.243   1.494 -0.4090 -1.1593 -1.4846
 1145TIP3   OH224993   6.581   2.509   8.406 -0.2566 -0.2559  0.4662
 1145TIP3    H124994   6.595   2.602   8.427 -0.0322 -0.4745  1.3674
 1145TIP3    H224995   6.489   2.504   8.380  0.4255  0.6869 -2.4614
 1146TIP3   OH224996   4.384   2.243   2.377 -0.5632  0.1198  0.1567
 1146TIP3    H124997   4.322   2.315   2.367 -1.1707 -0.2384  1.1791
 1146TIP3    H224998   4.330   2.164   2.374  0.0195 -0.2680 -0.3294
 1147TIP3   OH224999   1.549   2.276   1.544 -0.0272 -0.2652  0.1417
 1147TIP3    H125000   1.511   2.299   1.459  0.2240  1.5281  0.4721
 1147TIP3    H225001   1.593   2.193   1.530 -0.9670 -0.5555 -1.1882
 1148TIP3   OH225002   1.256   5.366   8.629  0.1309 -0.0920 -0.3738
 1148TIP3    H125003   1.244   5.352   8.535  0.1202  1.0003 -0.5563
 1148TIP3    H225004   1.322   5.302   8.655 -0.9268 -1.4108 -0.8172
 1149TIP3   OH225005   0.013   6.323   2.161 -0.5394 -0.0154 -0.5863
 1149TIP3    H125006   0.015   6.336   2.256  0.5532 -0.5859 -0.5240
 1149TIP3    H225007   0.080   6.382   2.127 -1.2904  0.5856 -1.0711
 1150TIP3   OH225008   6.052   6.403   1.684  0.0882  0.1203  0.1793
 1150TIP3    H125009   6.019   6.338   1.622 -0.0883  0.5074 -0.1347
 1150TIP3    H225010   6.036   6.364   1.770  1.4961 -0.9843 -0.0305
 1151TIP3   OH225011   0.379   2.029   1.123  0.2718  0.3557  0.0243
 1151TIP3    H125012   0.298   2.061   1.083 -0.7425 -0.6101  1.2032
 1151TIP3    H225013   0.385   1.938   1.093  1.1612  0.5389 -0.3825
 1152TIP3   OH225014   3.720   4.690   1.796 -0.1321  0.1914  0.0097
 1152TIP3    H125015   3.739   4.748   1.723 -0.5128 -0.5856 -0.7314
 1152TIP3    H225016   3.803   4.682   1.844  0.6323 -0.7687 -1.4211
 1153TIP3   OH225017   5.452   0.698   0.431  0.2763  0.0459 -0.5717
 1153TIP3    H125018   5.459   0.736   0.518  0.0911 -1.9053  0.3476
 1153TIP3    H225019   5.531   0.729   0.385  0.3206  1.1800  0.2337
 1154TIP3   OH225020   3.264   5.382   1.364  0.4642  0.3964  0.0387
 1154TIP3    H125021   3.285   5.459   1.310  1.8596  0.2361  0.3208
 1154TIP3    H225022   3.262   5.416   1.454  1.4780  0.0579  0.2060
 1155TIP3   OH225023   6.402   1.799   8.580 -0.0293 -0.0690 -0.2117
 1155TIP3    H125024   6.386   1.876   8.635 -0.8750 -0.7816  0.5793
 1155TIP3    H225025   6.489   1.815   8.542  0.4383  0.6169  1.0614
 1156TIP3   OH225026   3.290   6.192   0.794 -0.5709 -0.4880  0.1907
 1156TIP3    H125027   3.299   6.288   0.800  0.7310 -0.6511  1.4157
 1156TIP3    H225028   3.322   6.171   0.706  2.8909 -0.0937  1.1993
 1157TIP3   OH225029   3.143   4.526   8.184 -0.2520  0.0610 -0.5235
 1157TIP3    H125030   3.221   4.578   8.163  0.1589 -0.3717 -0.0741
 1157TIP3    H225031   3.164   4.438   8.154  0.2392 -0.5120  1.3731
 1158TIP3   OH225032   3.590   0.072   2.152 -0.0447 -1.1717 -0.3883
 1158TIP3    H125033   3.511   0.114   2.120  0.0881 -0.3575  0.3341
 1158TIP3    H225034   3.649   0.071   2.077  0.5800  1.4687 -0.0326
 1159TIP3   OH225035   1.119   2.695   1.854 -0.9047 -0.4871  0.5416
 1159TIP3    H125036   1.166   2.657   1.928  0.7467 -1.2450 -0.8053
 1159TIP3    H225037   1.086   2.619   1.805 -1.7292 -0.0132  0.3463
 1160TIP3   OH225038   1.341   4.763   2.382  0.4035  0.2656  0.1584
 1160TIP3    H125039   1.298   4.726   2.459  0.2953 -0.4158 -0.2186
 1160TIP3    H225040   1.391   4.690   2.345  0.2973  0.5316 -0.5267
 1161TIP3   OH225041   1.949   6.011   7.652  0.1535 -0.0807 -0.4733
 1161TIP3    H125042   2.014   6.081   7.642  0.6575 -0.1656  1.6473
 1161TIP3    H225043   2.001   5.931   7.658 -0.3029 -0.4275 -1.0904
 1162TIP3   OH225044   0.711   3.220   0.937  0.7362  0.1591  0.0470
 1162TIP3    H125045   0.730   3.174   0.855  1.5751 -1.5014  1.1095
 1162TIP3    H225046   0.629   3.266   0.921 -0.6670 -2.4420 -0.8675
 1163TIP3   OH225047   0.346   2.907   2.415 -0.1066 -0.5059  0.1844
 1163TIP3    H125048   0.395   2.835   2.375  0.6685 -0.1970  0.5517
 1163TIP3    H225049   0.399   2.985   2.399  0.4443 -0.4207  2.0870
 1164TIP3   OH225050   1.704   1.180   8.800  0.2240 -0.1612 -0.1109
 1164TIP3    H125051   1.633   1.122   8.772 -0.1577  0.2138  0.0566
 1164TIP3    H225052   1.721   1.155   8.891  0.2746 -0.2223 -0.1369
 1165TIP3   OH225053   0.867   4.961   8.820 -0.0704 -0.0685  0.5412
 1165TIP3    H125054   0.818   4.920   8.749 -1.5856  0.7846  1.0597
 1165TIP3    H225055   0.946   4.995   8.778 -0.5771 -0.2501 -0.5922
 1166TIP3   OH225056   4.338   3.210   1.639 -0.2935  0.0678 -0.1584
 1166TIP3    H125057   4.288   3.192   1.719 -0.6057 -0.8981 -0.5599
 1166TIP3    H225058   4.349   3.124   1.598  0.0120  0.5327 -1.0686
 1167TIP3   OH225059   3.275   5.317   8.437  0.3285  0.3334 -0.2469
 1167TIP3    H125060   3.319   5.236   8.412 -1.3865 -0.8590  0.4234
 1167TIP3    H225061   3.324   5.386   8.392  2.9867 -0.8509  0.6425
 1168TIP3   OH225062   4.310   5.479   0.177  0.3078 -0.1338 -0.1858
 1168TIP3    H125063   4.301   5.542   0.249 -0.3174 -2.7909  2.2328
 1168TIP3    H225064   4.249   5.512   0.110 -2.6535  0.1224  2.3618
 1169TIP3   OH225065   1.982   5.760   2.362  0.3791 -0.2552 -0.0346
 1169TIP3    H125066   2.007   5.797   2.447 -0.5188  0.8192 -0.2126
 1169TIP3    H225067   1.901   5.805   2.340  0.4449 -0.7425 -1.3328
 1170TIP3   OH225068   2.418   0.482   8.724  0.1705  0.6417 -0.6969
 1170TIP3    H125069   2.336   0.486   8.675 -0.7759  0.2124  0.8109
 1170TIP3    H225070   2.455   0.397   8.702 -2.1038 -1.2381  2.0897
 1171TIP3   OH225071   2.793   5.091   1.382 -0.1733 -0.3222  0.0822
 1171TIP3    H125072   2.867   5.123   1.329  0.5925  0.2909  1.4526
 1171TIP3    H225073   2.716   5.131   1.342  0.4836  0.9182 -0.0073
 1172TIP3   OH225074   2.578   0.492   1.961 -0.0503 -0.4196  0.4115
 1172TIP3    H125075   2.535   0.528   1.883 -1.7798 -0.5149  1.2523
 1172TIP3    H225076   2.642   0.559   1.986 -1.6772  1.1213  0.6819
 1173TIP3   OH225077   5.213   5.050   7.260  0.1131  1.1908 -0.5150
 1173TIP3    H125078   5.283   5.114   7.252  0.0970  1.7875  2.6194
 1173TIP3    H225079   5.134   5.103   7.276 -0.5313  0.4543 -1.1423
 1174TIP3   OH225080   3.923   2.273   2.658 -0.4456 -0.5901  0.1696
 1174TIP3    H125081   3.855   2.242   2.717 -0.9366 -0.3584 -0.2608
 1174TIP3    H225082   3.901   2.365   2.642 -0.2428 -0.6097 -0.2545
 1175TIP3   OH225083   1.124   3.026   2.458  0.4740  0.6770  0.0268
 1175TIP3    H125084   1.142   3.119   2.468  1.8499  0.6561 -1.8634
 1175TIP3    H225085   1.188   2.983   2.516  1.3328  0.8532 -0.7774
 1176TIP3   OH225086   0.412   6.220   0.059 -0.1705 -0.3540  0.3201
 1176TIP3    H125087   0.453   6.302   0.083 -0.4596  0.1001 -0.6609
 1176TIP3    H225088   0.351   6.201   0.130 -0.4940  0.5709  0.3051
 1177TIP3   OH225089   6.235   5.433   7.324 -0.4723  0.0871 -0.1959
 1177TIP3    H125090   6.180   5.484   7.383 -0.0172  0.9669 -0.5254
 1177TIP3    H225091   6.270   5.496   7.262  1.0544 -0.4136  0.1067
 1178TIP3   OH225092   4.044   0.895   8.017  0.3857 -0.0682  0.0428
 1178TIP3    H125093   4.109   0.828   7.998  2.1839  1.2123  1.3976
 1178TIP3    H225094   3.965   0.866   7.970  1.2032 -2.8685  0.2266
 1179TIP3   OH225095   5.034   5.479   8.674 -0.1960 -0.2706  0.3332
 1179TIP3    H125096   4.946   5.518   8.674 -0.1915 -0.2511  0.7681
 1179TIP3    H225097   5.060   5.480   8.766  1.5641  2.6185 -0.0823
 1180TIP3   OH225098   4.889   0.800   0.460 -0.6414 -0.1000 -0.5561
 1180TIP3    H125099   4.925   0.829   0.377  0.2642 -0.7972 -0.4173
 1180TIP3    H225100   4.846   0.877   0.496  2.3863  1.3743  0.2055
 1181TIP3   OH225101   4.582   5.987   1.010 -0.4683 -0.2864 -0.4498
 1181TIP3    H125102   4.527   5.909   0.999 -1.9612  0.4865  1.0589
 1181TIP3    H225103   4.536   6.040   1.074  0.8078  1.6025 -1.0048
 1182TIP3   OH225104   4.131   6.464   0.500 -0.1857  0.2640  0.2846
 1182TIP3    H125105   4.216   6.483   0.538  0.3550  1.6854 -1.4971
 1182TIP3    H225106   4.114   6.537   0.441  0.3244 -2.8555 -4.2615
 1183TIP3   OH225107   2.567   1.539   0.157 -0.1894  0.1626 -0.1179
 1183TIP3    H125108   2.542   1.631   0.153  2.2407  1.0218  1.7304
 1183TIP3    H225109   2.639   1.536   0.220 -1.0391 -3.2352  0.9363
 1184TIP3   OH225110   4.072   4.163   8.447 -0.1066 -0.2124  0.3164
 1184TIP3    H125111   4.114   4.081   8.472 -0.3119 -0.0533  1.2245
 1184TIP3    H225112   3.978   4.143   8.446 -0.0681 -0.5327 -1.5697
 1185TIP3   OH225113   5.341   1.562   1.249 -0.4675 -0.1449  0.0945
 1185TIP3    H125114   5.349   1.637   1.308  0.6744  0.8983 -1.3041
 1185TIP3    H225115   5.320   1.600   1.164 -3.4137 -1.7109  0.0150
 1186TIP3   OH225116   3.296   6.724   7.965 -0.2755  0.1877  0.1300
 1186TIP3    H125117   3.306   6.657   8.033 -0.1345  0.0906  0.0155
 1186TIP3    H225118   3.386   6.745   7.938 -0.2508 -3.1411 -3.2963
 1187TIP3   OH225119   5.809   2.116   8.529 -0.0165 -0.3055 -0.6113
 1187TIP3    H125120   5.739   2.161   8.576  0.2725 -0.6125  0.1278
 1187TIP3    H225121   5.865   2.186   8.496 -0.4227 -0.0752 -0.8231
 1188TIP3   OH225122   6.348   3.418   2.808  0.2527 -0.3083  0.0658
 1188TIP3    H125123   6.402   3.366   2.868  0.0228  0.5915  1.0981
 1188TIP3    H225124   6.318   3.492   2.861 -1.7694 -0.6241 -0.5457
 1189TIP3   OH225125   1.382   3.861   2.986  0.2443 -0.2231 -0.0208
 1189TIP3    H125126   1.473   3.891   2.986 -0.1955  1.2076 -0.3940
 1189TIP3    H225127   1.332   3.938   2.959 -0.7963 -1.8293 -3.1509
 1190TIP3   OH225128   6.306   1.280   0.210 -0.4227  0.0534  0.1348
 1190TIP3    H125129   6.279   1.372   0.211  0.8102  0.4332  0.1847
 1190TIP3    H225130   6.241   1.237   0.154  0.7062  1.5525 -2.5379
 1191TIP3   OH225131   4.179   3.844   0.390 -0.5458  0.0579  0.4786
 1191TIP3    H125132   4.233   3.887   0.323 -0.8914 -0.8336 -0.4032
 1191TIP3    H225133   4.121   3.913   0.423  0.4611  0.7984  0.7521
 1192TIP3   OH225134   1.679   5.729   0.655 -0.5222 -0.1754  0.0454
 1192TIP3    H125135   1.689   5.772   0.740  0.9747 -1.1048  0.3861
 1192TIP3    H225136   1.630   5.791   0.601  0.4366  1.3903  0.9149
 1193TIP3   OH225137   6.202   4.733   1.636  0.3322 -0.1283  0.1105
 1193TIP3    H125138   6.116   4.774   1.640 -0.1736 -1.2181  0.9791
 1193TIP3    H225139   6.194   4.665   1.569  0.5775 -0.1040  0.0534
 1194TIP3   OH225140   1.288   0.131   1.166 -0.4489  0.3413  0.2199
 1194TIP3    H125141   1.382   0.133   1.152 -0.3078 -0.9373  0.7945
 1194TIP3    H225142   1.276   0.162   1.255 -0.4695 -0.3813  0.4775
 1195TIP3   OH225143   2.520   6.478   8.732  0.2267 -0.0094 -0.0594
 1195TIP3    H125144   2.519   6.571   8.753 -0.9998 -0.3402  1.5544
 1195TIP3    H225145   2.593   6.442   8.783  0.0988 -0.0767  0.0778
 1196TIP3   OH225146   5.865   5.959   0.179  0.3023  0.3658  0.0702
 1196TIP3    H125147   5.839   5.927   0.266  3.0633  1.7212  1.5133
 1196TIP3    H225148   5.897   5.880   0.134  1.3362  0.0500  1.3031
 1197TIP3   OH225149   3.051   4.937   1.304  0.6739  0.1284  0.2300
 1197TIP3    H125150   3.078   5.010   1.360  0.2982  1.1501 -0.8731
 1197TIP3    H225151   3.061   4.971   1.215 -0.1255 -0.9560 -0.2855
 1198TIP3   OH225152   5.908   6.074   8.749 -0.2907  0.0746  0.9012
 1198TIP3    H125153   5.873   6.153   8.792  1.7701  2.2189 -1.0536
 1198TIP3    H225154   5.836   6.044   8.693 -1.2489  0.3139  1.9677
 1199TIP3   OH225155   6.722   3.005   2.928 -0.1597 -0.2282 -0.2592
 1199TIP3    H125156   6.773   2.947   2.985 -2.0131 -1.1321  0.5877
 1199TIP3    H225157   6.786   3.065   2.890  1.3932 -0.7420  1.4094
 1200TIP3   OH225158   1.757   1.765   8.843  0.2610 -0.2008 -0.0243
 1200TIP3    H125159   1.830   1.769   8.904  0.9305  1.8280 -0.8696
 1200TIP3    H225160   1.706   1.689   8.871  1.1838 -0.0301  2.2983
 1201TIP3   OH225161   1.914   4.446   1.963 -0.1766 -0.2473  0.6139
 1201TIP3    H125162   1.913   4.448   1.867 -2.3108  1.8190  0.5947
 1201TIP3    H225163   1.826   4.415   1.987 -0.2082  0.7384  1.8639
 1202TIP3   OH225164   5.258   2.565   7.920 -0.4716  0.6068 -0.0898
 1202TIP3    H125165   5.295   2.566   7.831  0.4615  0.6183  0.2878
 1202TIP3    H225166   5.164   2.559   7.906 -0.2640 -0.9672 -1.0592
 1203TIP3   OH225167   6.202   5.185   0.534 -0.2216  0.0798  0.0473
 1203TIP3    H125168   6.172   5.274   0.552  1.6204  0.7708 -0.0524
 1203TIP3    H225169   6.138   5.129   0.578 -1.0957  1.4571  0.6231
 1204TIP3   OH225170   1.510   5.964   0.489 -0.6172  0.4347  0.6125
 1204TIP3    H125171   1.559   6.024   0.432  0.7569 -1.2698 -0.1073
 1204TIP3    H225172   1.465   6.021   0.551  0.4112  2.2138 -0.1951
 1205TIP3   OH225173   4.500   4.025   2.683  0.1664 -0.2208  0.4323
 1205TIP3    H125174   4.530   4.006   2.594 -0.9040 -0.8809  0.1941
 1205TIP3    H225175   4.580   4.047   2.731  0.7598  0.1319 -0.6865
 1206TIP3   OH225176   2.653   0.013   7.969  0.6914 -0.0787  0.1153
 1206TIP3    H125177   2.566  -0.012   7.938 -0.0234  0.7795  1.3418
 1206TIP3    H225178   2.666   0.102   7.937  0.0198  0.7501  1.9847
 1207TIP3   OH225179   2.585   3.998   2.151 -0.2723  0.2598 -0.5955
 1207TIP3    H125180   2.557   4.086   2.125  0.6387  0.3225 -1.4198
 1207TIP3    H225181   2.591   3.949   2.069 -0.3940 -0.4665 -0.1834
 1208TIP3   OH225182   2.253   3.836   8.022 -0.3977  0.6821  0.1998
 1208TIP3    H125183   2.306   3.896   7.968  0.0854 -0.1946 -0.3208
 1208TIP3    H225184   2.242   3.758   7.967  0.4651 -0.4114  1.5264
 1209TIP3   OH225185   5.661   5.745   8.243 -0.1627  0.0565 -0.4682
 1209TIP3    H125186   5.675   5.715   8.153  0.7916 -1.0782  0.0375
 1209TIP3    H225187   5.572   5.718   8.263 -0.4254  0.4129 -1.0925
 1210TIP3   OH225188   5.342   4.024   2.803 -0.2462 -0.3984  0.3766
 1210TIP3    H125189   5.308   3.947   2.848 -1.8727 -0.4164 -0.7999
 1210TIP3    H225190   5.380   4.078   2.872 -1.9992 -0.7524  1.6733
 1211TIP3   OH225191   6.617   0.253   0.928 -0.4916  0.2980  0.3925
 1211TIP3    H125192   6.704   0.273   0.962  1.1998 -2.5036 -1.8354
 1211TIP3    H225193   6.611   0.303   0.847 -0.1370 -0.8721 -0.3825
 1212TIP3   OH225194   1.684   0.999   2.041  0.7933 -0.0188 -0.2899
 1212TIP3    H125195   1.771   1.021   2.073  1.1805 -0.4676 -1.0360
 1212TIP3    H225196   1.666   0.912   2.077  0.0230  0.6811  1.1096
 1213TIP3   OH225197   5.229   2.019   1.198  1.0094  0.1719  0.2697
 1213TIP3    H125198   5.151   2.040   1.147  2.4061  1.2620 -1.5393
 1213TIP3    H225199   5.221   2.073   1.277  0.7237  1.6155 -0.6990
 1214TIP3   OH225200   5.815   6.657   1.313 -0.4641 -0.3580  0.1036
 1214TIP3    H125201   5.725   6.637   1.339 -1.0277 -1.2475 -2.2823
 1214TIP3    H225202   5.818   6.638   1.220  2.1230  0.0358  0.0297
 1215TIP3   OH225203   5.595   5.335   8.019  0.2537 -0.1756  0.0956
 1215TIP3    H125204   5.630   5.324   8.107 -1.3108 -2.9685  0.4839
 1215TIP3    H225205   5.669   5.319   7.961  0.7426 -0.8752  0.8908
 1216TIP3   OH225206   1.256   4.282   1.161 -0.4953  0.2006  0.1778
 1216TIP3    H125207   1.279   4.244   1.076 -0.4951  0.6274 -0.0133
 1216TIP3    H225208   1.209   4.363   1.139 -0.0530  0.5709  0.5931
 1217TIP3   OH225209   5.239   5.980   2.145 -0.0834 -0.1674 -0.6970
 1217TIP3    H125210   5.295   6.041   2.097  0.2595  0.1912  0.1364
 1217TIP3    H225211   5.166   6.034   2.176  1.1702  0.3245  1.6877
 1218TIP3   OH225212   5.102   3.866   2.355  0.2900  0.1947 -0.4408
 1218TIP3    H125213   5.181   3.867   2.301  0.6951  0.4759  0.1573
 1218TIP3    H225214   5.100   3.953   2.396  0.1942 -0.1614  0.3092
 1219TIP3   OH225215   2.159   6.676   8.891  1.0739 -0.6923 -0.0568
 1219TIP3    H125216   2.204   6.655   8.973 -0.4757 -0.1126  0.9963
 1219TIP3    H225217   2.087   6.612   8.886  0.9563 -0.5103 -0.7913
 1220TIP3   OH225218   3.727   2.148   1.378  0.4543 -0.0323  0.2572
 1220TIP3    H125219   3.674   2.125   1.301  1.7346  0.0512 -0.6942
 1220TIP3    H225220   3.796   2.205   1.343  2.1390 -1.4362  1.0969
 1221TIP3   OH225221   0.269   4.147   8.161 -0.7223  0.0033  0.3221
 1221TIP3    H125222   0.281   4.152   8.255  1.0574  3.3007  0.0800
 1221TIP3    H225223   0.176   4.127   8.149 -1.3495  1.1439  2.7946
 1222TIP3   OH225224   0.144   0.812   8.546  0.2370  0.4037 -0.5553
 1222TIP3    H125225   0.076   0.764   8.594  0.4956 -0.6165 -1.1733
 1222TIP3    H225226   0.101   0.892   8.516 -0.4317  0.1966 -0.1710
 1223TIP3   OH225227   5.209   4.581   8.621  0.5043 -0.2935  0.4603
 1223TIP3    H125228   5.273   4.651   8.637  1.2301 -0.7664 -0.2837
 1223TIP3    H225229   5.146   4.620   8.560  0.0454  0.1897  1.2326
 1224TIP3   OH225230   2.003   3.838   7.669  0.0107  0.2901  0.7902
 1224TIP3    H125231   2.043   3.771   7.614 -0.7499 -0.7652  1.4901
 1224TIP3    H225232   1.914   3.805   7.686  0.1847  0.6423  2.5339
 1225TIP3   OH225233   6.627   1.663   1.281 -0.0008  0.4051 -0.0892
 1225TIP3    H125234   6.625   1.671   1.185 -0.3480  0.9960 -0.0333
 1225TIP3    H225235   6.678   1.583   1.296 -0.1539  0.1669 -0.7722
 1226TIP3   OH225236   2.301   0.599   2.219 -0.2159  0.3339  0.0079
 1226TIP3    H125237   2.361   0.670   2.195  1.2730 -1.2174 -1.1453
 1226TIP3    H225238   2.290   0.549   2.138  2.2827 -3.1939  1.5366
 1227TIP3   OH225239   1.992   3.415   2.755 -0.5889  0.6207 -0.2479
 1227TIP3    H125240   1.906   3.394   2.717 -0.1643 -1.7816 -0.0281
 1227TIP3    H225241   2.052   3.354   2.713  0.9581  1.9298 -0.0206
 1228TIP3   OH225242   1.877   4.679   8.135 -0.4240 -0.2598  0.2981
 1228TIP3    H125243   1.888   4.756   8.080 -1.5717  1.2535  2.0789
 1228TIP3    H225244   1.796   4.638   8.102  0.2148 -0.7841 -0.6812
 1229TIP3   OH225245   0.950   1.798   8.210 -0.7871 -0.0654  0.6234
 1229TIP3    H125246   0.875   1.741   8.195 -0.2669 -0.4004 -0.8255
 1229TIP3    H225247   0.956   1.852   8.131  0.7831 -0.3826  0.4868
 1230TIP3   OH225248   4.909   5.285   7.975 -0.4760 -0.5313 -0.3897
 1230TIP3    H125249   4.818   5.259   7.989 -0.5635 -0.4432 -0.7794
 1230TIP3    H225250   4.938   5.318   8.060 -0.6773 -0.9515 -0.1538
 1231TIP3   OH225251   0.327   5.248   2.202 -0.1989 -0.0499 -1.0544
 1231TIP3    H125252   0.294   5.159   2.220 -0.1835 -0.2136 -1.7984
 1231TIP3    H225253   0.333   5.289   2.288 -0.8068 -0.5650 -0.7558
 1232TIP3   OH225254   0.258   1.649   0.664 -0.6884  0.4469  0.0836
 1232TIP3    H125255   0.192   1.619   0.602 -0.2368  0.3960 -0.3800
 1232TIP3    H225256   0.253   1.587   0.737 -1.2298  0.5151  0.1068
 1233TIP3   OH225257   3.631   5.479   8.314 -0.3000  0.0951  0.2548
 1233TIP3    H125258   3.676   5.402   8.347  1.5305  1.0539  0.1090
 1233TIP3    H225259   3.679   5.503   8.234 -0.4593  1.7017  0.6002
 1234TIP3   OH225260   5.980   1.122   1.744 -0.2829 -0.0062 -0.3721
 1234TIP3    H125261   6.021   1.114   1.830 -0.5920  2.9383  0.1704
 1234TIP3    H225262   5.890   1.091   1.756  0.7453 -3.6502 -0.8230
 1235TIP3   OH225263   1.012   3.950   0.878 -0.5153  0.0595  0.0807
 1235TIP3    H125264   1.073   3.955   0.951 -0.1180 -0.6901 -0.1977
 1235TIP3    H225265   0.948   4.020   0.896  1.0898  1.6858 -0.2580
 1236TIP3   OH225266   4.166   0.152   7.419 -0.3929 -0.6652 -0.0657
 1236TIP3    H125267   4.194   0.067   7.450  0.1273 -0.0492  1.2133
 1236TIP3    H225268   4.086   0.171   7.469 -1.3982 -1.0490 -1.4505
 1237TIP3   OH225269   5.311   3.886   0.766 -0.2409  0.2307 -0.6973
 1237TIP3    H125270   5.296   3.977   0.740  0.5826 -0.0107 -2.1726
 1237TIP3    H225271   5.243   3.837   0.719  0.1435 -0.0346 -0.9850
 1238TIP3   OH225272   0.823   2.636   2.540 -0.3623 -0.2415 -0.0275
 1238TIP3    H125273   0.817   2.693   2.616 -0.5624  0.0867 -0.2846
 1238TIP3    H225274   0.917   2.624   2.526 -0.3235 -1.5349  1.1686
 1239TIP3   OH225275   2.072   5.481   1.737 -0.0355 -0.7912  0.2885
 1239TIP3    H125276   2.162   5.507   1.718  0.0698 -1.5854 -0.3671
 1239TIP3    H225277   2.080   5.406   1.796 -0.1973 -1.9074 -1.0599
 1240TIP3   OH225278   3.880   1.178   1.652  0.3324 -0.0569 -0.4129
 1240TIP3    H125279   3.966   1.188   1.694  0.8060  0.1876 -1.4080
 1240TIP3    H225280   3.891   1.102   1.594 -0.3406 -0.4478 -0.0357
 1241TIP3   OH225281   3.238   1.056   0.319 -0.0788 -0.2911 -0.5183
 1241TIP3    H125282   3.149   1.021   0.322 -0.6678  1.1752  0.2597
 1241TIP3    H225283   3.291   0.992   0.367 -1.5760  1.0292  3.3140
 1242TIP3   OH225284   1.414   1.628   0.101  0.4477 -0.2362  0.3919
 1242TIP3    H125285   1.331   1.586   0.082  0.3639  0.8777 -2.1227
 1242TIP3    H225286   1.397   1.722   0.088  2.4055 -0.0971 -1.9340
 1243TIP3   OH225287   1.130   5.346   0.850  0.0319  0.2447  0.1038
 1243TIP3    H125288   1.108   5.257   0.824  1.3324 -0.5022  1.4324
 1243TIP3    H225289   1.209   5.368   0.800  0.9256 -0.1575  1.3061
 1244TIP3   OH225290   3.587   6.128   2.563  0.1887  0.4716 -0.2529
 1244TIP3    H125291   3.583   6.109   2.469  1.4348  0.3627 -0.3082
 1244TIP3    H225292   3.501   6.104   2.597 -0.4547  1.0248 -1.4589
 1245TIP3   OH225293   6.377   3.813   0.587 -0.2992  0.7701 -0.2360
 1245TIP3    H125294   6.417   3.726   0.589  0.5113  1.1429  0.2481
 1245TIP3    H225295   6.343   3.826   0.676 -2.0407  0.2371 -0.7692
 1246TIP3   OH225296   2.736   3.379   7.146 -0.3003 -0.0223  0.7480
 1246TIP3    H125297   2.823   3.418   7.148 -0.0013 -0.3825 -1.6404
 1246TIP3    H225298   2.689   3.427   7.077 -0.9518 -1.7620 -0.0921
 1247TIP3   OH225299   5.694   0.310   0.102  0.0655 -0.2839  0.2059
 1247TIP3    H125300   5.766   0.291   0.043  0.0252  0.4102 -0.0804
 1247TIP3    H225301   5.730   0.372   0.166  0.1252 -1.0655  0.9543
 1248TIP3   OH225302   6.137   1.298   1.427 -0.1484 -0.0470 -0.2650
 1248TIP3    H125303   6.223   1.264   1.451 -0.1681  0.2098  0.1745
 1248TIP3    H225304   6.153   1.348   1.347  0.3851  1.1856  0.5760
 1249TIP3   OH225305   6.548   3.266   0.983  0.3291 -0.3830 -0.4948
 1249TIP3    H125306   6.620   3.323   1.008 -2.3162  3.2454 -0.3703
 1249TIP3    H225307   6.559   3.252   0.889  0.6219  1.0862 -0.6909
 1250TIP3   OH225308   5.521   3.793   1.343 -0.3370 -0.3055 -0.1245
 1250TIP3    H125309   5.550   3.712   1.302 -0.3688 -1.0555  1.2671
 1250TIP3    H225310   5.463   3.765   1.413 -1.3724  0.9951 -0.4212
 1251TIP3   OH225311   2.124   6.222   1.910 -0.2278  0.2722  0.9785
 1251TIP3    H125312   2.037   6.187   1.930 -0.2375 -0.1629  0.2140
 1251TIP3    H225313   2.167   6.229   1.995 -1.3754  1.5105  1.4956
 1252TIP3   OH225314   4.476   2.582   1.761 -0.1266 -0.0061 -0.6237
 1252TIP3    H125315   4.480   2.495   1.799  0.6026  0.1466 -0.3415
 1252TIP3    H225316   4.417   2.631   1.818 -0.5935 -0.3200 -0.8216
 1253TIP3   OH225317   3.931   0.841   2.473  0.7676 -0.2506  0.0130
 1253TIP3    H125318   3.961   0.865   2.385 -1.0868  0.5950 -0.4260
 1253TIP3    H225319   3.971   0.907   2.530  0.8989  0.0088 -0.3728
 1254TIP3   OH225320   2.725   0.710   2.069  0.3332  0.3987  0.4437
 1254TIP3    H125321   2.772   0.708   2.153  0.0585 -0.7125  0.5837
 1254TIP3    H225322   2.793   0.734   2.005  0.1203  3.5345  1.1999
 1255TIP3   OH225323   1.988   4.585   3.456 -0.2374 -0.1081 -0.3947
 1255TIP3    H125324   2.028   4.531   3.525 -0.4708  0.8660  0.5347
 1255TIP3    H225325   1.897   4.594   3.484 -0.5079 -0.2751 -1.2102
 1256TIP3   OH225326   1.958   3.490   0.976 -0.2994 -0.0511 -0.0159
 1256TIP3    H125327   1.933   3.438   1.052  0.4234  1.2482  1.1723
 1256TIP3    H225328   1.877   3.532   0.948 -1.0007 -2.1418 -1.3217
 1257TIP3   OH225329   5.742   1.308   0.794  0.0934  0.5391 -0.1424
 1257TIP3    H125330   5.739   1.215   0.770 -1.4481  0.8297 -1.2009
 1257TIP3    H225331   5.816   1.314   0.855  0.7215 -1.2284 -0.6546
 1258TIP3   OH225332   1.153   1.539   0.999  0.2112 -0.1250 -0.8063
 1258TIP3    H125333   1.081   1.568   1.055  0.7065 -1.1293  0.4037
 1258TIP3    H225334   1.111   1.492   0.927 -0.4281  1.0717 -1.2355
 1259TIP3   OH225335   6.082   4.208   3.162 -0.5193  0.1199  0.3613
 1259TIP3    H125336   6.076   4.126   3.213  0.5987  0.8565  1.7756
 1259TIP3    H225337   6.157   4.254   3.201  2.3846 -0.4855 -3.8092
 1260TIP3   OH225338   6.197   0.217   8.328  0.2121  0.2894 -0.6619
 1260TIP3    H125339   6.213   0.128   8.357 -2.7147 -0.0270  0.3479
 1260TIP3    H225340   6.234   0.221   8.240  0.8425 -1.7669 -0.5351
 1261TIP3   OH225341   2.334   2.583   0.669 -0.3942 -0.6106 -0.3739
 1261TIP3    H125342   2.284   2.636   0.607 -1.1159 -0.0523  0.6574
 1261TIP3    H225343   2.268   2.543   0.726  0.2600 -1.0174  0.1182
 1262TIP3   OH225344   3.033   3.506   2.582  0.1183  0.3376 -0.3172
 1262TIP3    H125345   3.046   3.412   2.567  1.5232  0.3993  0.3412
 1262TIP3    H225346   3.069   3.521   2.670 -2.5357  1.0187  0.7654
 1263TIP3   OH225347   0.172   1.641   1.301 -1.0436 -0.4761  0.0845
 1263TIP3    H125348   0.157   1.580   1.373 -0.9240  0.1873  0.6807
 1263TIP3    H225349   0.189   1.725   1.344 -0.2714 -0.2178 -0.6973
 1264TIP3   OH225350   4.881   3.820   2.188 -0.4216  0.1637 -0.1558
 1264TIP3    H125351   4.877   3.910   2.157 -1.4027 -0.4080 -1.8283
 1264TIP3    H225352   4.938   3.824   2.265  1.5250  1.8244 -1.5496
 1265TIP3   OH225353   3.262   4.388   0.923  0.0619  0.2051  0.3365
 1265TIP3    H125354   3.247   4.430   0.838  0.4018 -0.1199  0.1122
 1265TIP3    H225355   3.209   4.309   0.920 -0.6577  0.6498  0.7988
 1266TIP3   OH225356   2.729   5.965   8.278 -0.6201 -0.1044  1.0909
 1266TIP3    H125357   2.655   5.986   8.336 -0.8074  1.6186  0.2736
 1266TIP3    H225358   2.688   5.944   8.194 -0.2795 -1.3763  1.2216
 1267TIP3   OH225359   0.743   1.598   8.312  0.3977  0.0233 -0.5592
 1267TIP3    H125360   0.712   1.668   8.254  1.4494  1.5811  0.6804
 1267TIP3    H225361   0.697   1.519   8.281 -1.9820  1.5048 -1.0839
 1268TIP3   OH225362   6.576   0.452   2.374 -0.0497 -0.6857 -0.3738
 1268TIP3    H125363   6.582   0.469   2.279 -2.7809  0.7425 -0.3818
 1268TIP3    H225364   6.493   0.491   2.400  0.0209 -2.1786  2.4248
 1269TIP3   OH225365   2.419   4.115   8.675 -0.2895 -0.1247 -0.2878
 1269TIP3    H125366   2.511   4.112   8.647 -0.1927 -0.5916  0.0615
 1269TIP3    H225367   2.402   4.208   8.691 -0.7520  0.3437 -3.1137
 1270TIP3   OH225368   3.592   4.179   1.927  0.1003  0.2202 -0.0094
 1270TIP3    H125369   3.599   4.110   1.861  0.6670  1.7050 -1.5884
 1270TIP3    H225370   3.575   4.133   2.008  0.0648 -1.7451 -1.0692
 1271TIP3   OH225371   6.168   0.768   1.600 -0.2821  0.2102 -0.0896
 1271TIP3    H125372   6.122   0.841   1.559 -1.7114  0.0260  1.1279
 1271TIP3    H225373   6.174   0.791   1.692  0.5781 -0.5503  0.0616
 1272TIP3   OH225374   2.785   5.711   2.107 -0.3849 -0.5298 -0.2406
 1272TIP3    H125375   2.853   5.686   2.169 -1.9382 -3.5971  0.4587
 1272TIP3    H225376   2.789   5.644   2.038 -1.8876 -0.1140 -0.7831
 1273TIP3   OH225377   2.758   3.631   8.195  0.4354 -0.3941 -0.5954
 1273TIP3    H125378   2.782   3.543   8.167 -0.3579 -0.6032 -0.6284
 1273TIP3    H225379   2.698   3.663   8.128  0.5207  0.0798 -0.4563
 1274TIP3   OH225380   3.340   3.479   8.173 -0.4555 -0.0907  0.3066
 1274TIP3    H125381   3.347   3.452   8.265  0.0452  1.9317  0.9088
 1274TIP3    H225382   3.263   3.535   8.170 -0.7651 -0.5449 -0.6435
 1275TIP3   OH225383   6.526   4.903   0.488  0.6871  0.3618 -0.4756
 1275TIP3    H125384   6.478   4.882   0.569  0.8462 -1.7546 -0.8616
 1275TIP3    H225385   6.458   4.910   0.421  0.7138 -0.1811 -0.5657
 1276TIP3   OH225386   5.407   2.535   0.983 -0.2406 -0.7698 -0.2273
 1276TIP3    H125387   5.468   2.466   1.010 -1.4423 -1.4535  0.8830
 1276TIP3    H225388   5.335   2.528   1.045  0.5681  2.9872  1.4032
 1277TIP3   OH225389   2.373   2.332   8.074 -0.5146 -0.3943 -0.0981
 1277TIP3    H125390   2.385   2.248   8.029 -1.1456 -0.4728 -0.1355
 1277TIP3    H225391   2.393   2.397   8.007 -1.2625 -0.5134 -0.4554
 1278TIP3   OH225392   6.634   0.517   2.089  0.0923 -0.0679 -0.7695
 1278TIP3    H125393   6.654   0.462   2.014  1.8888 -0.2666 -0.1916
 1278TIP3    H225394   6.713   0.512   2.144 -0.7627  0.9159  0.6024
 1279TIP3   OH225395   2.605   2.775   2.124 -0.4640 -0.0756 -0.0350
 1279TIP3    H125396   2.594   2.833   2.049 -0.1121  0.2718  0.1738
 1279TIP3    H225397   2.690   2.734   2.111 -0.4303 -0.0641  0.1364
 1280TIP3   OH225398   3.641   4.392   0.218  0.0058  0.3159  0.1824
 1280TIP3    H125399   3.712   4.412   0.157  0.1547 -1.0433 -0.1223
 1280TIP3    H225400   3.563   4.427   0.176  0.4451  1.6972  0.4502
 1281TIP3   OH225401   1.650   3.066   1.707 -0.0739  0.0451 -0.0844
 1281TIP3    H125402   1.656   2.978   1.671  0.9804  0.4041 -0.8365
 1281TIP3    H225403   1.675   3.123   1.635 -0.9070  0.9778  0.3475
 1282TIP3   OH225404   1.543   6.558   8.289  0.3232 -0.1974  0.5613
 1282TIP3    H125405   1.558   6.582   8.197 -3.5827  1.5328  0.1786
 1282TIP3    H225406   1.574   6.633   8.338 -0.5211  0.2917  0.3623
 1283TIP3   OH225407   6.168   6.013   8.723 -0.2852 -0.0064  0.3852
 1283TIP3    H125408   6.073   6.008   8.707 -0.1479 -0.9903 -0.1714
 1283TIP3    H225409   6.207   5.991   8.639  0.4501  0.2909  0.6436
 1284TIP3   OH225410   1.673   3.696   1.172  0.3747  0.0633 -0.0303
 1284TIP3    H125411   1.611   3.626   1.152 -1.3194  1.6705 -0.5984
 1284TIP3    H225412   1.686   3.742   1.090 -0.1440  1.6515  0.7359
 1285TIP3   OH225413   3.837   2.778   0.671 -0.8111 -0.0291 -0.2084
 1285TIP3    H125414   3.914   2.786   0.727 -1.5025  1.3803  0.5963
 1285TIP3    H225415   3.870   2.790   0.582 -0.3303  2.5923  0.2624
 1286TIP3   OH225416   0.876   1.704   0.868 -0.1294 -0.1227  0.8980
 1286TIP3    H125417   0.912   1.732   0.784  2.8243 -1.6916  1.4970
 1286TIP3    H225418   0.847   1.614   0.853  0.3073 -0.3700  1.5072
 1287TIP3   OH225419   5.988   2.558   8.802  0.2290  0.5132 -0.3565
 1287TIP3    H125420   5.926   2.488   8.822  1.6592 -0.6238  0.2332
 1287TIP3    H225421   6.043   2.565   8.880  0.5752  1.8135 -0.6873
 1288TIP3   OH225422   5.584   0.399   2.833 -0.3494  0.3983  0.7257
 1288TIP3    H125423   5.583   0.486   2.794  1.4370  0.1480  0.0048
 1288TIP3    H225424   5.626   0.411   2.918  0.6794  0.1316  0.2671
 1289TIP3   OH225425   0.796   0.038   7.828  0.3490 -0.2788 -0.3260
 1289TIP3    H125426   0.798  -0.057   7.820  1.4878 -0.1901 -1.3367
 1289TIP3    H225427   0.711   0.057   7.868  1.2424 -1.8802  2.6355
 1290TIP3   OH225428   2.030   5.255   8.367 -0.6299  0.3057 -0.4222
 1290TIP3    H125429   2.114   5.292   8.339 -0.6149  1.8317  1.4311
 1290TIP3    H225430   2.050   5.163   8.384  1.2426  1.0133  1.7902
 1291TIP3   OH225431   0.491   6.005   2.077  0.0820 -1.0783  0.5593
 1291TIP3    H125432   0.431   6.024   2.149  0.8895 -0.3103  1.0490
 1291TIP3    H225433   0.434   5.975   2.006 -0.8048 -1.0668  1.2452
 1292TIP3   OH225434   0.357   4.594   2.704 -0.5693  0.0833 -0.0677
 1292TIP3    H125435   0.445   4.558   2.721  0.2058  1.3484 -1.1909
 1292TIP3    H225436   0.329   4.629   2.788 -1.3075 -2.8842  1.0575
 1293TIP3   OH225437   0.197   5.097   2.985  0.4357 -0.1574 -0.3281
 1293TIP3    H125438   0.285   5.063   3.003 -0.1843 -0.6452  2.1214
 1293TIP3    H225439   0.140   5.020   2.989 -0.3388  0.4193  0.0839
 1294TIP3   OH225440   3.405   0.616   2.049  0.0394 -0.3548 -0.3178
 1294TIP3    H125441   3.414   0.710   2.068  0.2815 -0.1545 -1.3730
 1294TIP3    H225442   3.459   0.602   1.971 -0.7726 -1.1715 -0.7494
 1295TIP3   OH225443   4.082   1.451   3.000  0.2067  0.2066 -0.0448
 1295TIP3    H125444   4.075   1.383   3.067  0.3032 -1.2482 -1.4446
 1295TIP3    H225445   4.173   1.446   2.970  0.4563  1.5778  0.4458
 1296TIP3   OH225446   2.356   0.851   2.689 -0.7088  0.4774 -0.2806
 1296TIP3    H125447   2.366   0.893   2.775 -1.8513 -0.1244  0.1787
 1296TIP3    H225448   2.439   0.806   2.674 -1.0615 -0.8072  1.3180
 1297TIP3   OH225449   4.626   5.611   0.652 -0.0954 -0.2123  0.6290
 1297TIP3    H125450   4.681   5.687   0.668 -1.4803  0.7190  1.2080
 1297TIP3    H225451   4.647   5.550   0.723  2.5462 -1.3648 -0.9939
 1298TIP3   OH225452   1.533   3.174   0.529  0.2443  0.2419  0.3255
 1298TIP3    H125453   1.449   3.203   0.563  0.0321 -0.2593  0.2315
 1298TIP3    H225454   1.537   3.209   0.441 -0.6318 -1.1645 -0.3068
 1299TIP3   OH225455   2.895   4.295   0.381 -0.4966  1.0962  0.2919
 1299TIP3    H125456   2.967   4.261   0.435  0.7562  1.0417 -1.3534
 1299TIP3    H225457   2.885   4.386   0.410 -0.9229  0.6416  1.6816
 1300TIP3   OH225458   6.584   1.612   0.688 -0.5986  0.4549 -0.0303
 1300TIP3    H125459   6.513   1.665   0.726 -0.6996  0.7661 -0.6391
 1300TIP3    H225460   6.592   1.644   0.598  0.0741  0.1740 -0.0768
 1301TIP3   OH225461   4.516   0.707   1.428 -0.6508 -0.3416 -0.2438
 1301TIP3    H125462   4.525   0.782   1.487 -0.1349  0.2003 -0.9981
 1301TIP3    H225463   4.423   0.688   1.428 -0.6593 -0.3900  0.7820
 1302TIP3   OH225464   6.296   0.959   0.165  0.1748  0.2639 -0.1653
 1302TIP3    H125465   6.391   0.948   0.160  0.0131 -0.8438 -1.3999
 1302TIP3    H225466   6.280   0.990   0.254  1.5979 -0.6312  0.4397
 1303TIP3   OH225467   3.490   0.905   2.103  0.1731 -0.4722 -0.3323
 1303TIP3    H125468   3.463   0.918   2.194 -0.1985 -0.4867 -0.4374
 1303TIP3    H225469   3.507   0.993   2.070  0.0901 -0.4483 -0.3127
 1304TIP3   OH225470   4.304   6.616   1.310  0.3205 -0.2033  0.2616
 1304TIP3    H125471   4.345   6.537   1.274 -0.2777  0.1722 -1.3329
 1304TIP3    H225472   4.213   6.590   1.327  0.4698 -0.2308  1.0738
 1305TIP3   OH225473   4.925   3.155   7.851 -0.2809  0.6691  0.0806
 1305TIP3    H125474   4.875   3.144   7.770 -0.2664  0.1719  0.1358
 1305TIP3    H225475   4.991   3.086   7.847 -1.3547 -0.4801  1.3377
 1306TIP3   OH225476   0.046   3.196   1.329 -0.0500 -0.2701 -0.3235
 1306TIP3    H125477   0.063   3.162   1.416  0.3423  0.3810 -0.1436
 1306TIP3    H225478   0.119   3.255   1.310 -0.5465  0.2329 -0.7512
 1307TIP3   OH225479   3.610   3.454   0.432  0.2679  0.3254 -0.1619
 1307TIP3    H125480   3.566   3.465   0.517  1.0227 -0.4453  0.3458
 1307TIP3    H225481   3.600   3.361   0.412 -0.2861  0.5795 -1.1557
 1308TIP3   OH225482   1.676   6.066   2.696  0.3192  0.2405  0.2678
 1308TIP3    H125483   1.727   5.990   2.726 -0.7191  0.0562  1.6521
 1308TIP3    H225484   1.710   6.139   2.747 -1.2264 -0.0125  1.7586
 1309TIP3   OH225485   5.025   1.335   1.061  0.0778  0.3098 -0.5644
 1309TIP3    H125486   4.955   1.398   1.080  0.5878  1.0506 -1.0568
 1309TIP3    H225487   4.979   1.260   1.024 -0.5252  0.4940 -0.2179
 1310TIP3   OH225488   1.380   3.562   2.937  0.5016  0.3668 -0.5664
 1310TIP3    H125489   1.466   3.523   2.924  1.2342  1.5086  0.5796
 1310TIP3    H225490   1.360   3.545   3.029 -1.9271 -2.5435 -1.4664
 1311TIP3   OH225491   5.323   6.749   8.441  0.3370 -0.3445 -0.0087
 1311TIP3    H125492   5.319   6.776   8.533 -1.9092  0.9706 -0.4210
 1311TIP3    H225493   5.348   6.828   8.394  0.7814 -0.8274 -0.5936
 1312TIP3   OH225494   3.038   4.450   2.911 -0.3075 -0.3158  0.3717
 1312TIP3    H125495   2.987   4.383   2.864  0.2240 -1.0191  0.7710
 1312TIP3    H225496   3.125   4.412   2.918 -0.3764 -0.2476  1.9561
 1313TIP3   OH225497   3.037   3.174   0.038 -0.3892  0.7228  0.0740
 1313TIP3    H125498   2.974   3.102   0.035  0.4554 -0.0227 -0.1506
 1313TIP3    H225499   3.058   3.191  -0.054  0.6178  0.1741  0.1996
 1314TIP3   OH225500   2.279   3.756   2.447 -0.1478 -0.5230 -0.2900
 1314TIP3    H125501   2.303   3.745   2.539  2.7739  0.1736 -0.8853
 1314TIP3    H225502   2.250   3.669   2.419 -1.7690 -0.5943  1.3928
 1315TIP3   OH225503   4.729   2.483   1.653  0.0973 -0.5079 -0.2273
 1315TIP3    H125504   4.780   2.499   1.732  0.7110 -0.2904 -0.6536
 1315TIP3    H225505   4.645   2.524   1.670  0.5879  0.4770 -0.0852
 1316TIP3   OH225506   6.115   6.449   0.546  0.0913  0.6845 -0.1665
 1316TIP3    H125507   6.105   6.544   0.549 -1.0146  0.5507  1.0880
 1316TIP3    H225508   6.065   6.422   0.469 -0.1415  1.0574 -0.1510
 1317TIP3   OH225509   5.493   1.453   1.902 -0.7011 -0.3262 -0.0079
 1317TIP3    H125510   5.568   1.509   1.882 -1.0832  0.5777  1.0053
 1317TIP3    H225511   5.474   1.408   1.820  1.0756 -0.7371 -0.2424
 1318TIP3   OH225512   4.208   6.265   1.778 -0.4060 -0.4173  0.8475
 1318TIP3    H125513   4.136   6.205   1.799  0.2586 -0.6826  2.5631
 1318TIP3    H225514   4.284   6.226   1.820  0.7577 -0.0910 -0.8491
 1319TIP3   OH225515   2.800   4.981   8.737 -0.6674  0.1027  0.7509
 1319TIP3    H125516   2.748   5.057   8.763 -0.5553  0.3969  0.1361
 1319TIP3    H225517   2.784   4.916   8.806 -2.4809 -0.1134  0.1959
 1320TIP3   OH225518   2.978   2.787   8.644  0.2212 -0.3399 -0.4728
 1320TIP3    H125519   2.948   2.872   8.610 -2.3229 -0.6982  0.6543
 1320TIP3    H225520   3.011   2.807   8.731  0.4686 -0.3705 -0.5608
 1321TIP3   OH225521   3.590   0.526   0.619 -0.3421  0.2942  0.7464
 1321TIP3    H125522   3.636   0.454   0.661 -0.1595  0.0785  0.1971
 1321TIP3    H225523   3.585   0.594   0.685  0.3484  0.1370  0.9660
 1322TIP3   OH225524   4.458   3.462   0.779 -0.3605 -0.4986 -0.3250
 1322TIP3    H125525   4.489   3.538   0.730 -2.2519  0.5739  0.0234
 1322TIP3    H225526   4.496   3.473   0.866 -1.2532  0.5399 -0.0372
 1323TIP3   OH225527   0.457   5.411   0.677 -0.3883 -0.7549 -0.1236
 1323TIP3    H125528   0.436   5.438   0.767 -0.5770  0.3934 -0.5031
 1323TIP3    H225529   0.550   5.432   0.667 -0.4035 -0.7479 -0.2487
 1324TIP3   OH225530   0.634   1.825   0.807 -0.3085  0.0091 -0.0298
 1324TIP3    H125531   0.713   1.788   0.846  0.3267  2.3008  1.0114
 1324TIP3    H225532   0.563   1.794   0.863 -0.0014 -0.9889 -0.1847
 1325TIP3   OH225533   3.516   3.203   0.663 -0.7532  0.3583 -0.0141
 1325TIP3    H125534   3.488   3.293   0.642  0.9414  0.9674  0.1845
 1325TIP3    H225535   3.512   3.199   0.759  3.3228  1.7824  0.4022
 1326TIP3   OH225536   2.966   2.171   0.408  0.1207 -0.0530  0.1136
 1326TIP3    H125537   3.008   2.172   0.322 -0.2801 -2.0852 -0.1369
 1326TIP3    H225538   2.879   2.135   0.392 -0.0208 -0.3069  1.3484
 1327TIP3   OH225539   5.087   4.439   0.208  0.0946  0.1539 -0.1041
 1327TIP3    H125540   5.054   4.383   0.137  1.5062 -0.3649 -0.3841
 1327TIP3    H225541   5.179   4.452   0.187  0.8095 -0.8093  2.1315
 1328TIP3   OH225542   5.582   1.457   0.928 -0.7625 -0.0881 -0.0402
 1328TIP3    H125543   5.627   1.388   0.879 -0.1323 -0.1000  0.5454
 1328TIP3    H225544   5.494   1.421   0.944  0.3814 -2.0090  2.7016
 1329TIP3   OH225545   1.028   1.339   0.027  0.3174 -0.1020 -0.0175
 1329TIP3    H125546   0.993   1.254   0.003  1.0438 -0.3670 -0.1515
 1329TIP3    H225547   0.980   1.401  -0.029  1.2498 -0.6141 -1.4213
 1330TIP3   OH225548   6.525   4.346   8.720  0.1934 -0.2212  0.7121
 1330TIP3    H125549   6.522   4.307   8.633 -1.9760  1.6329 -0.1453
 1330TIP3    H225550   6.436   4.336   8.755 -0.3069  3.1197  0.7099
 1331TIP3   OH225551   3.712   2.997   2.027  0.0721  0.2738 -0.4805
 1331TIP3    H125552   3.736   2.929   2.089 -1.7781 -1.1585 -1.2596
 1331TIP3    H225553   3.719   3.079   2.077  1.5221 -0.5250  0.7057
 1332TIP3   OH225554   1.841   5.099   7.695 -0.0806 -0.7570 -0.8876
 1332TIP3    H125555   1.788   5.020   7.702  1.8759 -2.0729  0.1828
 1332TIP3    H225556   1.865   5.103   7.602 -0.4364 -1.2569 -1.0105
 1333TIP3   OH225557   4.412   0.263   2.054 -0.4241 -0.2972  0.1492
 1333TIP3    H125558   4.392   0.350   2.018  0.0196 -0.5397 -0.6996
 1333TIP3    H225559   4.461   0.281   2.134 -1.9068  0.2644  0.9750
 1334TIP3   OH225560   2.571   1.573   2.868 -0.8018  0.0971  0.3808
 1334TIP3    H125561   2.492   1.617   2.900 -0.9346 -0.0452  0.2509
 1334TIP3    H225562   2.559   1.568   2.773 -1.1911 -0.9788  0.4654
 1335TIP3   OH225563   2.175   1.335   8.533  0.1536 -0.3026  0.0107
 1335TIP3    H125564   2.166   1.412   8.476  1.9654  0.3311  0.4958
 1335TIP3    H225565   2.164   1.261   8.474 -0.5697  0.3260 -0.6700
 1336TIP3   OH225566   2.846   6.181   1.644  0.0827  0.1939  0.4531
 1336TIP3    H125567   2.765   6.140   1.614  0.2465  0.0492  0.1992
 1336TIP3    H225568   2.834   6.193   1.738 -0.3011  0.3366  0.3858
 1337TIP3   OH225569   0.855   1.491   2.062 -0.0341 -0.4719 -0.7362
 1337TIP3    H125570   0.781   1.446   2.021 -1.3404  0.0139  0.9767
 1337TIP3    H225571   0.817   1.570   2.100  1.1536 -0.6856  1.0029
 1338TIP3   OH225572   5.806   3.098   2.726 -0.1091 -0.0789 -0.6714
 1338TIP3    H125573   5.824   3.098   2.632  1.8165  1.4072 -0.3446
 1338TIP3    H225574   5.854   3.022   2.760 -1.8233 -1.3739 -1.0041
 1339TIP3   OH225575   2.187   1.926   8.402 -0.6302  0.2968 -0.6045
 1339TIP3    H125576   2.271   1.936   8.358 -0.3385  0.3390 -0.0395
 1339TIP3    H225577   2.189   1.837   8.437  0.0610  0.9948  1.2260
 1340TIP3   OH225578   6.411   0.173   8.132 -0.3740  0.1288 -0.0637
 1340TIP3    H125579   6.390   0.098   8.189  0.9580  0.2648  0.6473
 1340TIP3    H225580   6.458   0.233   8.189 -2.1901  1.9521 -0.3908
 1341TIP3   OH225581   2.054   3.263   1.598 -0.5807  0.2066 -0.1442
 1341TIP3    H125582   2.121   3.213   1.645  0.0938  2.0533  1.0065
 1341TIP3    H225583   1.977   3.259   1.655 -0.7730 -0.1837 -0.4344
 1342TIP3   OH225584   1.492   3.672   8.519 -0.3231 -0.6556  0.4465
 1342TIP3    H125585   1.418   3.724   8.488  0.7356 -0.2197 -1.5454
 1342TIP3    H225586   1.493   3.596   8.461  0.8834 -0.5667  0.3253
 1343TIP3   OH225587   3.024   5.423   1.191 -0.1220 -0.3387  0.5716
 1343TIP3    H125588   3.042   5.350   1.251 -1.3317  0.5482  2.0860
 1343TIP3    H225589   3.100   5.480   1.198 -0.2680 -0.2272  1.3139
 1344TIP3   OH225590   5.816   2.985   3.362 -0.5639 -0.0891 -0.4409
 1344TIP3    H125591   5.867   3.049   3.411  0.2500 -0.8613 -0.2410
 1344TIP3    H225592   5.879   2.946   3.301 -0.4199 -2.2943  0.9992
 1345TIP3   OH225593   6.460   1.487   2.692  0.4162 -0.1479 -0.1117
 1345TIP3    H125594   6.448   1.501   2.786  1.0593  0.1611 -0.0721
 1345TIP3    H225595   6.508   1.404   2.685 -0.3657 -0.5999 -0.2064
 1346TIP3   OH225596   3.464   1.407   0.537  0.1056  0.0634  0.0635
 1346TIP3    H125597   3.535   1.409   0.601 -2.0896  1.0014  2.6592
 1346TIP3    H225598   3.471   1.491   0.490  0.7252  0.1156  0.2426
 1347TIP3   OH225599   0.221   0.216   1.323  0.0546  0.3290  0.6305
 1347TIP3    H125600   0.136   0.237   1.362  0.1444  0.6531  0.6573
 1347TIP3    H225601   0.261   0.301   1.304 -0.7905  0.2349 -1.9797
 1348TIP3   OH225602   3.696   2.172   2.775  0.5358  0.3750  0.5860
 1348TIP3    H125603   3.728   2.131   2.855  0.2467 -1.1072 -0.0350
 1348TIP3    H225604   3.612   2.130   2.757  0.7045  0.5027 -0.6153
 1349TIP3   OH225605   0.494   4.663   1.738 -0.5258 -0.4784 -0.6141
 1349TIP3    H125606   0.546   4.614   1.674 -0.3878  0.6867 -1.4343
 1349TIP3    H225607   0.404   4.657   1.704 -0.5854 -0.6030 -0.4322
 1350TIP3   OH225608   5.877   5.447   0.790  0.1035  0.0034  0.2589
 1350TIP3    H125609   5.824   5.427   0.713 -0.2435 -0.1321  0.5318
 1350TIP3    H225610   5.815   5.482   0.854  0.6004  1.4492 -0.0118
 1351TIP3   OH225611   1.125   1.256   8.658 -0.1496  0.3171 -0.3953
 1351TIP3    H125612   1.107   1.163   8.641  0.0726  0.0713  0.6476
 1351TIP3    H225613   1.041   1.299   8.647 -0.7488 -0.3494  1.2904
 1352TIP3   OH225614   5.138   2.523   2.830 -0.3951  0.4436 -0.7814
 1352TIP3    H125615   5.101   2.537   2.742 -0.0362 -1.3808 -1.2684
 1352TIP3    H225616   5.103   2.438   2.856  1.3847 -0.1258 -0.1548
 1353TIP3   OH225617   6.071   6.676   1.642  0.1912  0.1012  0.3701
 1353TIP3    H125618   5.996   6.704   1.589  1.2436 -1.6198 -2.2010
 1353TIP3    H225619   6.044   6.591   1.678  0.3931  0.1396  0.6101
 1354TIP3   OH225620   0.203   2.519   8.259 -0.1032 -0.0348  0.0997
 1354TIP3    H125621   0.195   2.552   8.348 -1.0280  1.5998 -0.5417
 1354TIP3    H225622   0.297   2.504   8.247 -0.0564 -1.1344  1.6070
 1355TIP3   OH225623   5.698   1.919   1.972  0.2179 -0.3618  0.1274
 1355TIP3    H125624   5.767   1.928   2.038  0.6954  0.4533 -0.4694
 1355TIP3    H225625   5.652   2.003   1.974  0.2600 -0.3207 -0.6014
 1356TIP3   OH225626   5.908   1.915   2.159 -0.1207  0.4401  0.0651
 1356TIP3    H125627   5.971   1.845   2.177 -0.1719  0.6083  0.9551
 1356TIP3    H225628   5.885   1.950   2.245  0.6881  2.2525 -0.4088
 1357TIP3   OH225629   4.464   6.571   7.626  0.8662 -0.0247  0.3734
 1357TIP3    H125630   4.421   6.641   7.676 -0.0097 -0.5574  0.3642
 1357TIP3    H225631   4.547   6.558   7.673  1.0565  1.0187  0.3731
 1358TIP3   OH225632   3.542   6.117   1.642 -0.2601 -0.0983 -0.4127
 1358TIP3    H125633   3.553   6.032   1.683 -0.0980  0.1780  0.1268
 1358TIP3    H225634   3.511   6.174   1.713 -0.9437  0.1512 -0.9052
 1359TIP3   OH225635   4.381   3.072   2.555 -0.7536  0.2685 -0.3205
 1359TIP3    H125636   4.457   3.129   2.546 -1.6074  1.2931 -1.3828
 1359TIP3    H225637   4.415   2.993   2.597  0.6467  1.1797  0.3229
 1360TIP3   OH225638   5.404   1.556   0.349  0.6574  0.4810 -0.0848
 1360TIP3    H125639   5.387   1.462   0.351 -0.6039  0.6085 -1.8597
 1360TIP3    H225640   5.446   1.575   0.433  2.3828 -1.8991 -0.3258
 1361TIP3   OH225641   4.490   3.948   8.160  0.4993 -0.4383  0.4834
 1361TIP3    H125642   4.556   3.964   8.227  0.3534 -1.0831  0.7873
 1361TIP3    H225643   4.481   3.853   8.157  0.4943 -0.4154 -0.4469
 1362TIP3   OH225644   3.784   4.203   7.915 -0.4763 -0.1999  0.0865
 1362TIP3    H125645   3.877   4.189   7.930 -0.3232  0.1709 -0.4765
 1362TIP3    H225646   3.748   4.114   7.905 -0.5196 -0.4378  2.0933
 1363TIP3   OH225647   5.523   4.176   1.159  0.3800  0.1436 -0.2556
 1363TIP3    H125648   5.545   4.263   1.124  0.6469  0.3217  0.3364
 1363TIP3    H225649   5.572   4.171   1.241 -0.4732 -0.1477  0.2414
 1364TIP3   OH225650   5.025   1.454   8.008 -0.8157  0.8015 -0.4315
 1364TIP3    H125651   5.048   1.546   7.994  0.6582  0.1390 -3.0114
 1364TIP3    H225652   5.036   1.440   8.102  2.6230  2.3876 -0.4698
 1365TIP3   OH225653   4.723   4.735   1.230  0.0310  0.2345  0.2688
 1365TIP3    H125654   4.796   4.710   1.285  0.0458  0.2267  0.2455
 1365TIP3    H225655   4.654   4.762   1.291  0.2447  0.7838  0.2756
 1366TIP3   OH225656   5.452   6.251   0.711  0.5331 -0.1468 -0.0141
 1366TIP3    H125657   5.366   6.269   0.748  0.0754 -1.1535 -0.5395
 1366TIP3    H225658   5.479   6.334   0.671  0.0859  0.3445  0.6816
 1367TIP3   OH225659   2.461   6.312   0.143  0.1864  0.4845 -0.1331
 1367TIP3    H125660   2.392   6.337   0.205 -0.5336 -1.0182 -0.2731
 1367TIP3    H225661   2.543   6.322   0.192 -0.2305  1.0483  0.4643
 1368TIP3   OH225662   2.939   2.951   1.363  0.4586  0.5532  0.1301
 1368TIP3    H125663   3.006   2.895   1.400  0.5646  1.6287  1.6505
 1368TIP3    H225664   2.856   2.909   1.387  0.5468  0.2198 -0.1340
 1369TIP3   OH225665   2.177   5.169   8.847 -0.7160  0.3862  0.5002
 1369TIP3    H125666   2.196   5.247   8.794 -0.2185  0.2250  0.4345
 1369TIP3    H225667   2.190   5.096   8.787  1.1414  0.1197  1.1582
 1370TIP3   OH225668   5.194   1.399   1.583 -0.2089  0.1162  0.1730
 1370TIP3    H125669   5.121   1.340   1.603 -0.4864 -0.3482 -1.9598
 1370TIP3    H225670   5.272   1.353   1.616 -0.5392 -0.9558 -0.4776
 1371TIP3   OH225671   6.075   5.814   2.981  0.4947  0.0574 -0.2126
 1371TIP3    H125672   6.010   5.845   3.045  0.7735  0.5706 -0.1698
 1371TIP3    H225673   6.155   5.862   3.003  0.3963  0.8182 -1.4128
 1372TIP3   OH225674   0.901   4.446   0.459  0.2318 -0.3424  0.4672
 1372TIP3    H125675   0.987   4.450   0.419 -1.0286  0.4886 -2.4128
 1372TIP3    H225676   0.877   4.537   0.475 -1.1324 -0.3089 -1.3707
 1373TIP3   OH225677   4.216   4.411   0.260  0.4047 -0.2920  0.0130
 1373TIP3    H125678   4.204   4.506   0.247  0.3530 -0.1909  0.7526
 1373TIP3    H225679   4.136   4.372   0.226  0.3892 -0.0620 -0.2179
 1374TIP3   OH225680   1.806   4.364   2.323  0.6279  0.2023  0.3857
 1374TIP3    H125681   1.835   4.333   2.238 -0.4152  3.1564 -1.2045
 1374TIP3    H225682   1.718   4.330   2.333  0.7596 -0.1626  0.3050
 1375TIP3   OH225683   1.744   4.059   2.450  0.0580  0.6177  0.2608
 1375TIP3    H125684   1.717   4.010   2.528 -0.9487  1.0374  0.1961
 1375TIP3    H225685   1.676   4.125   2.438 -0.3330 -0.0362 -1.5255
 1376TIP3   OH225686   5.509   4.850   7.741 -0.0211 -0.3258 -0.0060
 1376TIP3    H125687   5.574   4.831   7.673 -0.0508  0.3045 -0.2152
 1376TIP3    H225688   5.512   4.945   7.751  0.1361 -0.4272  1.0314
 1377TIP3   OH225689   1.362   0.922   8.195  0.9924  0.4741  0.1409
 1377TIP3    H125690   1.455   0.942   8.198  0.9260  0.9678 -0.6975
 1377TIP3    H225691   1.358   0.827   8.181  1.3387  0.1955  1.7653
 1378TIP3   OH225692   0.992   0.020   8.622  0.1067  0.2939  0.3288
 1378TIP3    H125693   1.038   0.095   8.659 -0.7046  0.5555  0.8409
 1378TIP3    H225694   0.922   0.001   8.686 -1.4389  0.8605 -1.1129
 1379TIP3   OH225695   5.727   2.667   2.507 -0.1402  0.3123 -0.1752
 1379TIP3    H125696   5.720   2.573   2.520 -0.5445  0.2647 -0.7488
 1379TIP3    H225697   5.817   2.680   2.475  0.0234  0.1661  0.2093
 1380TIP3   OH225698   1.426   0.040   2.132  0.2998 -0.0613  0.0988
 1380TIP3    H125699   1.491   0.038   2.202  1.6322  0.5255 -1.0803
 1380TIP3    H225700   1.352   0.086   2.170 -0.0883 -2.0367  1.9664
 1381TIP3   OH225701   0.351   3.836   7.646 -0.6044  0.2068  0.0595
 1381TIP3    H125702   0.413   3.770   7.614  0.8246  0.8800  1.2881
 1381TIP3    H225703   0.329   3.888   7.568 -0.3323 -0.6114 -0.5708
 1382TIP3   OH225704   3.445   6.450   8.410  0.0214  0.0388 -0.1261
 1382TIP3    H125705   3.502   6.484   8.342 -0.0234 -1.3588 -0.8974
 1382TIP3    H225706   3.455   6.355   8.406 -2.4953 -0.2978 -0.4535
 1383TIP3   OH225707   3.073   5.408   0.260 -0.2899 -0.2536 -0.0696
 1383TIP3    H125708   3.052   5.316   0.271 -1.9933  0.1361  0.1927
 1383TIP3    H225709   3.018   5.437   0.187  1.3372  0.2230 -1.1566
 1384TIP3   OH225710   0.237   0.055   1.564  0.3807  0.1005 -0.0400
 1384TIP3    H125711   0.182  -0.018   1.536 -0.9336  1.5248 -1.3470
 1384TIP3    H225712   0.257   0.102   1.483 -0.7011  2.4459  0.9614
 1385TIP3   OH225713   5.551   6.599   1.334  0.3092 -0.2329  0.0052
 1385TIP3    H125714   5.480   6.636   1.386  0.5167 -0.9158  0.7875
 1385TIP3    H225715   5.509   6.531   1.281  0.4197 -0.8234  0.6677
 1386TIP3   OH225716   4.782   3.841   1.391  0.4602  0.3648 -0.1706
 1386TIP3    H125717   4.858   3.898   1.382  0.6762  0.1240  0.0798
 1386TIP3    H225718   4.818   3.752   1.390  0.4447  0.2658  1.9568
 1387TIP3   OH225719   1.404   6.037   3.004  0.0125  0.7138  0.1671
 1387TIP3    H125720   1.494   6.008   2.989 -0.1396 -0.6452  1.5471
 1387TIP3    H225721   1.359   6.020   2.922  0.2128 -2.0785  0.5234
 1388TIP3   OH225722   6.479   5.354   7.927 -0.2646  0.4219  0.4995
 1388TIP3    H125723   6.532   5.426   7.895 -0.4941 -0.3217 -1.7532
 1388TIP3    H225724   6.536   5.277   7.919 -1.0381 -0.0984 -0.1611
 1389TIP3   OH225725   4.526   1.017   8.515 -0.3910  0.5918  0.2311
 1389TIP3    H125726   4.608   0.980   8.545  0.9376  3.5372  0.5558
 1389TIP3    H225727   4.475   1.030   8.595 -0.8939 -0.4954  0.1082
 1390TIP3   OH225728   2.231   4.809   2.602  0.1000 -0.1493 -0.0451
 1390TIP3    H125729   2.229   4.808   2.698  1.0112  0.4770 -0.0120
 1390TIP3    H225730   2.296   4.743   2.579  0.4841  0.2819 -0.2051
 1391TIP3   OH225731   2.908   5.038   8.228  0.0042 -0.1922 -0.2581
 1391TIP3    H125732   2.918   5.107   8.294  1.4651 -0.4128 -0.1996
 1391TIP3    H225733   2.888   5.084   8.147  1.0407  0.3225 -0.2338
 1392TIP3   OH225734   1.154   0.886   3.313  0.0438  0.4027 -0.5752
 1392TIP3    H125735   1.249   0.876   3.316 -0.0475 -0.9264 -1.5595
 1392TIP3    H225736   1.129   0.860   3.224 -1.1857  1.3135 -0.5266
 1393TIP3   OH225737   5.239   3.648   2.564  0.4469  0.0064  0.0660
 1393TIP3    H125738   5.280   3.592   2.630  1.1568  0.1890 -0.2161
 1393TIP3    H225739   5.303   3.652   2.493 -0.5402 -0.6745 -0.9007
 1394TIP3   OH225740   1.175   4.326   1.448 -0.4255  0.3503  0.0724
 1394TIP3    H125741   1.231   4.318   1.371  0.1727 -0.4319  0.5809
 1394TIP3    H225742   1.135   4.240   1.458 -0.4939  0.4449  0.6466
 1395TIP3   OH225743   0.187   6.119   0.219  0.5281  0.4578  0.1353
 1395TIP3    H125744   0.091   6.125   0.216  0.3942  1.2143  2.9453
 1395TIP3    H225745   0.205   6.025   0.214 -0.4788  0.2012  0.8191
 1396TIP3   OH225746   3.917   5.682   3.057 -0.6283  0.3889 -0.1449
 1396TIP3    H125747   3.850   5.722   3.001 -0.6663  1.0404  0.3571
 1396TIP3    H225748   3.999   5.698   3.011 -0.7747 -0.1435 -0.6086
 1397TIP3   OH225749   4.234   4.115   0.224  0.1760 -0.0251 -0.2685
 1397TIP3    H125750   4.156   4.155   0.185 -0.7310  0.2530  1.6919
 1397TIP3    H225751   4.304   4.180   0.210 -0.5752  0.9094  0.1976
 1398TIP3   OH225752   4.218   2.659   8.298 -0.0182 -0.0509 -0.0703
 1398TIP3    H125753   4.311   2.661   8.318 -0.1751  0.3769  0.6715
 1398TIP3    H225754   4.196   2.749   8.274  0.2852 -0.6583 -2.9201
 1399TIP3   OH225755   5.013   5.554   2.726 -1.2621 -0.2590  0.1164
 1399TIP3    H125756   4.992   5.472   2.682 -0.6209  0.1145 -0.9209
 1399TIP3    H225757   5.039   5.529   2.814  0.0306 -1.2886 -0.5264
 1400TIP3   OH225758   2.220   4.560   1.148 -1.0691  0.3617 -0.5859
 1400TIP3    H125759   2.274   4.621   1.098 -1.2553  0.1706 -1.0243
 1400TIP3    H225760   2.182   4.614   1.218  0.4094  0.3070  0.2961
 1401TIP3   OH225761   3.756   2.667   1.586  0.3821 -0.1381  0.0492
 1401TIP3    H125762   3.824   2.726   1.553  0.3297 -0.2477 -0.2573
 1401TIP3    H225763   3.674   2.708   1.559  0.1482  1.5500  2.8887
 1402TIP3   OH225764   3.003   3.783   1.023  0.0169  0.3621 -0.1236
 1402TIP3    H125765   3.054   3.818   0.950  1.1922  0.9460  0.9346
 1402TIP3    H225766   2.973   3.859   1.072  0.4442 -0.0275  0.7818
 1403TIP3   OH225767   6.277   5.727   0.959  0.1087  0.0537 -0.1155
 1403TIP3    H125768   6.191   5.746   0.997  0.4106 -0.7336  1.0038
 1403TIP3    H225769   6.340   5.755   1.026  0.6336 -1.8470  0.2468
 1404TIP3   OH225770   3.069   2.866   8.033  0.6054  0.0483 -0.4045
 1404TIP3    H125771   3.158   2.836   8.050  0.2160  0.7169  3.9997
 1404TIP3    H225772   3.015   2.788   8.043  0.4484  0.3038  1.0508
 1405TIP3   OH225773   4.480   1.009   0.332  0.3070  0.1033  0.4398
 1405TIP3    H125774   4.570   1.002   0.302  0.3114 -0.6630  0.5962
 1405TIP3    H225775   4.432   1.045   0.257  1.0033  2.0832  0.8925
 1406TIP3   OH225776   3.380   3.463   1.004 -0.2938  0.5192 -0.5374
 1406TIP3    H125777   3.307   3.410   1.034  0.2031 -0.1343 -0.4427
 1406TIP3    H225778   3.452   3.440   1.063  0.2233  0.4915 -1.1667
 1407TIP3   OH225779   2.149   5.553   8.006 -0.0665  0.3422  0.1147
 1407TIP3    H125780   2.212   5.536   7.937  0.0598  1.6771 -0.1356
 1407TIP3    H225781   2.106   5.469   8.021 -0.6013  0.1426 -2.0925
 1408TIP3   OH225782   0.220   4.739   1.736  0.2487  0.6922 -0.0116
 1408TIP3    H125783   0.166   4.755   1.659  1.4731  1.3856 -0.7826
 1408TIP3    H225784   0.245   4.827   1.765  1.6156  0.3857 -0.1937
 1409TIP3   OH225785   6.074   1.983   1.076  0.6281  0.7633 -0.2610
 1409TIP3    H125786   6.126   1.911   1.112 -0.7247  0.5087  1.3128
 1409TIP3    H225787   5.986   1.967   1.109 -0.2323  1.7893 -1.9427
 1410TIP3   OH225788   5.061   2.167   7.473  0.0827  0.0240  0.0735
 1410TIP3    H125789   4.967   2.186   7.476  0.0279 -0.3107  2.3712
 1410TIP3    H225790   5.069   2.087   7.421 -0.8173  0.3392 -0.5756
 1411TIP3   OH225791   6.552   5.881   8.720 -0.3073 -0.1947 -0.0933
 1411TIP3    H125792   6.537   5.913   8.809  1.4971 -1.5551  0.7876
 1411TIP3    H225793   6.648   5.881   8.711 -0.3791 -1.8558 -1.3263
 1412TIP3   OH225794   2.345   2.029   2.349 -0.0043  0.1296  0.1828
 1412TIP3    H125795   2.425   2.063   2.390  0.9241  0.7160 -2.0191
 1412TIP3    H225796   2.364   2.028   2.256 -3.1621  1.8821 -0.5910
 1413TIP3   OH225797   3.916   1.396   8.918  0.2849 -0.6215  0.0623
 1413TIP3    H125798   3.987   1.397   8.854  0.1250  0.8254 -0.1159
 1413TIP3    H225799   3.956   1.360   8.998  1.4050  0.7410  0.1482
 1414TIP3   OH225800   2.399   1.509   8.334 -0.2121  0.0168 -0.0449
 1414TIP3    H125801   2.492   1.499   8.314  0.0958  0.1115  1.2398
 1414TIP3    H225802   2.358   1.431   8.297  0.2720  0.2814 -1.1823
 1415TIP3   OH225803   3.992   6.714   1.943 -0.1721  0.7170 -0.0754
 1415TIP3    H125804   4.045   6.782   1.902 -0.9077  2.1538  1.2615
 1415TIP3    H225805   4.043   6.634   1.933 -0.2592  0.9632 -3.6492
 1416TIP3   OH225806   5.904   2.298   3.561  0.7789 -0.1169  0.6034
 1416TIP3    H125807   5.987   2.323   3.521  0.9705 -0.1421  0.9854
 1416TIP3    H225808   5.842   2.364   3.529 -0.1052 -2.5397 -3.3123
 1417TIP3   OH225809   5.620   4.517   8.784 -0.7493  0.8420  0.1723
 1417TIP3    H125810   5.663   4.503   8.869 -0.7221  0.5519  0.1121
 1417TIP3    H225811   5.648   4.442   8.731 -0.9996  0.8693  0.0005
 1418TIP3   OH225812   6.108   0.490   1.636 -0.1248  0.0532 -0.2373
 1418TIP3    H125813   6.106   0.586   1.633  1.6903  0.4350  3.7309
 1418TIP3    H225814   6.184   0.466   1.583  1.5012  1.2363  1.4014
 1419TIP3   OH225815   1.000   2.383   0.596  0.2077  0.4754 -0.0914
 1419TIP3    H125816   0.987   2.473   0.567 -0.0191  0.8957  1.2449
 1419TIP3    H225817   0.940   2.372   0.670 -0.0268 -0.8905 -0.4645
 1420TIP3   OH225818   1.788   5.416   0.338 -0.5543  0.4436  0.4033
 1420TIP3    H125819   1.873   5.395   0.377  2.0547  0.9779 -4.2866
 1420TIP3    H225820   1.744   5.470   0.404  1.7175 -1.6050  3.9138
 1421TIP3   OH225821   5.279   1.914   0.778  0.7306  0.3202 -0.2835
 1421TIP3    H125822   5.349   1.973   0.751  0.2289  0.8868 -0.3855
 1421TIP3    H225823   5.230   1.898   0.697  0.2822  0.5606 -0.0609
 1422TIP3   OH225824   2.750   4.109   8.619  0.1925 -0.0180  0.2327
 1422TIP3    H125825   2.745   4.134   8.712 -0.9549 -0.8621  0.4158
 1422TIP3    H225826   2.803   4.178   8.579 -1.2810  1.6774  1.0774
 1423TIP3   OH225827   5.331   5.572   2.416  0.3752 -0.0067 -0.2804
 1423TIP3    H125828   5.322   5.661   2.381 -1.6438 -0.1185 -0.1764
 1423TIP3    H225829   5.330   5.583   2.511  1.9556 -0.0267 -0.2341
 1424TIP3   OH225830   0.895   4.018   2.181 -0.1900  0.5992  0.2015
 1424TIP3    H125831   0.979   4.065   2.175 -0.3709  1.0652  1.1960
 1424TIP3    H225832   0.831   4.080   2.146 -0.7886  2.1143  3.6456
 1425TIP3   OH225833   6.021   6.166   1.551 -0.0915  0.4466  0.2021
 1425TIP3    H125834   6.112   6.154   1.579 -0.1781  1.5813  1.0137
 1425TIP3    H225835   6.026   6.170   1.455  0.9425  2.2181  0.2951
 1426TIP3   OH225836   2.179   3.678   0.500 -0.3867  0.3575  0.7177
 1426TIP3    H125837   2.104   3.738   0.502 -0.9089 -0.0735 -1.9926
 1426TIP3    H225838   2.141   3.592   0.518 -0.3860  0.2880  0.4029
 1427TIP3   OH225839   3.030   2.538   0.006  0.0187  0.1652  0.2875
 1427TIP3    H125840   3.112   2.491  -0.010 -0.1291  0.3399 -1.1242
 1427TIP3    H225841   2.962   2.475  -0.016 -0.2007  0.4038  0.2836
 1428TIP3   OH225842   1.154   6.003   1.660 -0.2630  0.3440 -0.0466
 1428TIP3    H125843   1.222   6.012   1.726  0.7299  0.2489 -1.0143
 1428TIP3    H225844   1.071   6.011   1.708  0.3760 -1.5352  1.4871
 1429TIP3   OH225845   0.042   0.561   8.150  0.3715  0.1836  0.0807
 1429TIP3    H125846   0.023   0.652   8.128 -1.1874 -0.4154 -1.2338
 1429TIP3    H225847   0.096   0.529   8.078  1.1847  0.1363  0.6971
 1430TIP3   OH225848   1.314   6.436   1.954  0.1836 -0.4301 -0.1654
 1430TIP3    H125849   1.371   6.456   1.880 -0.5429  0.1348 -0.5888
 1430TIP3    H225850   1.239   6.391   1.915 -0.3993  0.2370  0.1539
 1431TIP3   OH225851   3.319   1.041   8.912 -0.0046  0.2291  0.3026
 1431TIP3    H125852   3.358   1.067   8.995 -0.1222  1.6156 -0.0570
 1431TIP3    H225853   3.245   0.985   8.937  0.4968 -0.0976  1.0850
 1432TIP3   OH225854   3.145   6.236   8.088  0.2231 -0.1791 -0.5211
 1432TIP3    H125855   3.070   6.218   8.144 -1.8342  0.1564 -2.9821
 1432TIP3    H225856   3.168   6.150   8.051  0.1171 -0.0590 -0.8660
 1433TIP3   OH225857   5.122   2.054   7.880  0.3617 -0.3128  0.1302
 1433TIP3    H125858   5.051   2.118   7.890  1.0396  0.5698 -0.5041
 1433TIP3    H225859   5.120   2.031   7.787  1.7859  0.7977 -0.2014
 1434TIP3   OH225860   0.445   0.297   1.529  0.0153  0.2222 -0.0332
 1434TIP3    H125861   0.505   0.295   1.454  0.4998  0.1263  0.3523
 1434TIP3    H225862   0.497   0.334   1.600 -0.6922  1.1072  0.0441
 1435TIP3   OH225863   2.185   0.918   1.853  0.6408  0.0695  0.0705
 1435TIP3    H125864   2.266   0.948   1.893 -0.4462 -0.4081  2.8845
 1435TIP3    H225865   2.170   0.832   1.891 -1.4222  0.3598  0.0351
 1436TIP3   OH225866   1.470   5.029   1.970  0.1795 -0.1538 -0.1805
 1436TIP3    H125867   1.421   5.110   1.963  1.7152  0.9989  1.3990
 1436TIP3    H225868   1.497   5.008   1.881  0.3280  1.4683 -0.5341
 1437TIP3   OH225869   6.339   2.588   7.379 -0.3625  0.4700  0.2822
 1437TIP3    H125870   6.355   2.518   7.315  2.4195  1.0722  0.1956
 1437TIP3    H225871   6.245   2.602   7.375 -0.5502 -0.8048 -2.3394
 1438TIP3   OH225872   0.225   3.298   0.274 -0.1201 -0.5465  0.2993
 1438TIP3    H125873   0.160   3.228   0.285 -0.5091 -0.3431 -0.6161
 1438TIP3    H225874   0.303   3.265   0.319 -0.4491 -1.3594  0.2994
 1439TIP3   OH225875   5.675   3.852   1.065  0.0572  0.3173 -0.6303
 1439TIP3    H125876   5.609   3.816   1.125  0.8627  0.0252  0.0939
 1439TIP3    H225877   5.647   3.943   1.051 -0.4077  0.2463 -0.1950
 1440TIP3   OH225878   3.214   0.076   0.515 -0.6129  0.1881 -0.0199
 1440TIP3    H125879   3.161   0.004   0.483  0.8586 -1.0754  0.2493
 1440TIP3    H225880   3.279   0.091   0.446 -0.2246  0.5074  0.4042
 1441TIP3   OH225881   5.259   5.440   1.186 -0.2018  0.1103 -0.6772
 1441TIP3    H125882   5.348   5.460   1.156  0.5396 -1.1069  0.6046
 1441TIP3    H225883   5.220   5.525   1.204  1.9848  0.6318  2.2219
 1442TIP3   OH225884   4.556   1.246   0.901 -0.0527  0.7619 -0.3078
 1442TIP3    H125885   4.527   1.227   0.812 -0.8386 -1.1445  0.3120
 1442TIP3    H225886   4.585   1.162   0.936  0.2042  1.4560  1.2673
 1443TIP3   OH225887   0.908   5.909   2.160  0.5813  0.3198 -0.2300
 1443TIP3    H125888   0.880   5.867   2.241  0.6520  0.0369 -0.3533
 1443TIP3    H225889   0.866   5.995   2.163  1.6336  0.8174  0.7239
 1444TIP3   OH225890   6.527   2.017   0.578 -0.3244 -0.3009  0.1945
 1444TIP3    H125891   6.461   2.085   0.590 -1.4476 -1.3821  0.3600
 1444TIP3    H225892   6.578   2.018   0.659  0.2907  0.9663 -0.1933
 1445TIP3   OH225893   3.296   1.419   8.122  0.3393  0.3098 -0.8487
 1445TIP3    H125894   3.244   1.407   8.043 -0.4730  1.8676 -0.5916
 1445TIP3    H225895   3.238   1.466   8.182  1.9146  1.8094 -0.4206
 1446TIP3   OH225896   4.720   2.851   8.416  0.0304  0.9159 -0.3839
 1446TIP3    H125897   4.784   2.783   8.433 -0.5139  0.0239 -1.7956
 1446TIP3    H225898   4.763   2.911   8.355 -0.7022 -0.0925 -1.9370
 1447TIP3   OH225899   0.719   2.958   1.830  0.1259  0.0142  0.1584
 1447TIP3    H125900   0.698   3.049   1.808 -0.9940  0.0438  1.1975
 1447TIP3    H225901   0.813   2.951   1.816 -0.1692  0.5142 -2.6698
 1448TIP3   OH225902   5.954   5.435   6.950  0.2571 -0.0403 -0.6537
 1448TIP3    H125903   5.967   5.524   6.983  0.6882 -1.1563  2.4270
 1448TIP3    H225904   6.029   5.386   6.982 -1.7400 -2.3017  0.8558
 1449TIP3   OH225905   4.488   5.658   0.930 -0.5961  0.6405 -0.1776
 1449TIP3    H125906   4.574   5.620   0.915 -1.0855 -0.3632 -0.5781
 1449TIP3    H225907   4.455   5.612   1.008 -0.6184  1.2910  0.1998
 1450TIP3   OH225908   3.296   4.728   2.139 -0.3001 -0.0170  0.0173
 1450TIP3    H125909   3.313   4.643   2.179 -0.3194 -0.6183 -1.2222
 1450TIP3    H225910   3.246   4.776   2.205 -0.5673 -1.0725  0.6014
 1451TIP3   OH225911   4.535   2.907   8.157 -0.7761  0.2679 -0.0400
 1451TIP3    H125912   4.539   2.951   8.242  1.9641  1.3575 -0.6339
 1451TIP3    H225913   4.497   2.972   8.098  0.3433  0.7279 -0.2755
 1452TIP3   OH225914   2.836   1.660   0.015  0.7473  0.1326  0.4234
 1452TIP3    H125915   2.800   1.727  -0.043  0.8961 -0.6451 -0.5942
 1452TIP3    H225916   2.863   1.708   0.093 -0.1603  1.0909  0.1692
 1453TIP3   OH225917   1.531   5.599   1.811  0.1527  0.2545  0.0873
 1453TIP3    H125918   1.460   5.543   1.779  1.0804 -0.7523 -0.2725
 1453TIP3    H225919   1.611   5.558   1.778  1.1184 -0.2163  2.7857
 1454TIP3   OH225920   4.135   3.390   0.509 -0.0478 -0.5612  0.2315
 1454TIP3    H125921   4.093   3.443   0.442  0.3501 -1.4977 -0.7823
 1454TIP3    H225922   4.229   3.405   0.496  0.0465 -1.1263  0.2598
 1455TIP3   OH225923   5.110   5.413   7.873 -0.6157 -0.3407 -0.6528
 1455TIP3    H125924   5.170   5.358   7.922  0.6397  0.6321 -1.0506
 1455TIP3    H225925   5.023   5.378   7.893 -0.0963 -0.5083  1.5868
 1456TIP3   OH225926   6.318   0.389   2.166  0.1116  0.0658 -0.1509
 1456TIP3    H125927   6.308   0.380   2.260 -0.4930 -1.1616 -0.3174
 1456TIP3    H225928   6.381   0.321   2.142 -0.2942 -0.1129 -0.7275
 1457TIP3   OH225929   1.737   6.578   0.442  0.1297 -0.7278  0.1697
 1457TIP3    H125930   1.714   6.485   0.441 -0.5718 -0.5966  1.7757
 1457TIP3    H225931   1.738   6.602   0.534 -0.2933  1.0142 -0.2381
 1458TIP3   OH225932   2.220   4.236   7.723 -0.0257  0.0119 -0.0575
 1458TIP3    H125933   2.281   4.297   7.766  3.3019 -0.4725 -3.4529
 1458TIP3    H225934   2.206   4.275   7.636 -4.0293 -0.4358  0.2082
 1459TIP3   OH225935   2.057   5.373   7.363  0.0888  0.5337 -0.3811
 1459TIP3    H125936   1.961   5.378   7.366 -0.0037 -1.0472  1.6402
 1459TIP3    H225937   2.086   5.427   7.435  0.5866 -0.6242  0.3148
 1460TIP3   OH225938   2.347   3.120   1.405 -0.1203  0.0565 -0.3172
 1460TIP3    H125939   2.426   3.072   1.380 -0.7757 -1.0786 -0.2682
 1460TIP3    H225940   2.380   3.193   1.458  0.8311 -0.9845  0.5849
 1461TIP3   OH225941   6.704   4.242   2.150  0.6233  0.1443 -0.8036
 1461TIP3    H125942   6.614   4.225   2.176 -0.1454  3.4727 -0.8211
 1461TIP3    H225943   6.746   4.156   2.149 -1.7929 -1.2293  1.9515
 1462TIP3   OH225944   6.042   3.463   7.885  0.6718  0.6636  0.7157
 1462TIP3    H125945   5.998   3.450   7.801  0.5047  0.6550  0.8031
 1462TIP3    H225946   5.975   3.441   7.950  0.6217  1.2132  0.8539
 1463TIP3   OH225947   3.406   5.556   8.389  0.0538  0.0871  0.5588
 1463TIP3    H125948   3.497   5.538   8.364  0.1980 -1.3444  1.9945
 1463TIP3    H225949   3.414   5.605   8.471 -0.4811  0.1668  0.5616
 1464TIP3   OH225950   2.204   2.192   2.634  0.0679 -0.3609 -0.5912
 1464TIP3    H125951   2.295   2.163   2.645  0.2024 -0.4690 -1.8586
 1464TIP3    H225952   2.162   2.122   2.583 -0.4660  0.1359 -0.8457
 1465TIP3   OH225953   1.042   4.680   2.451  0.0071 -0.4704  0.0313
 1465TIP3    H125954   1.120   4.687   2.506  0.1522 -0.2611 -0.1986
 1465TIP3    H225955   0.968   4.685   2.512  0.0950  2.0651  0.0173
 1466TIP3   OH225956   3.184   1.969   0.049 -0.2756 -0.4611  0.1338
 1466TIP3    H125957   3.156   1.928   0.132  1.5995  0.9946  1.5850
 1466TIP3    H225958   3.277   1.947   0.042  0.3725  2.0393  0.0906
 1467TIP3   OH225959   1.193   3.720   0.425  0.0017  0.0501 -0.1849
 1467TIP3    H125960   1.143   3.661   0.481 -0.4961  1.0944  0.5073
 1467TIP3    H225961   1.171   3.807   0.456  0.3497  0.6338 -1.4961
 1468TIP3   OH225962   0.585   5.440   7.202 -0.1891  0.3929  0.1172
 1468TIP3    H125963   0.659   5.427   7.142  0.7085  2.0207  0.8152
 1468TIP3    H225964   0.611   5.514   7.257 -1.2475 -0.6585  2.1422
 1469TIP3   OH225965   4.865   0.098   0.659  0.6117  0.0959 -0.1584
 1469TIP3    H125966   4.831   0.076   0.573  2.7904 -0.2402 -1.0157
 1469TIP3    H225967   4.789   0.129   0.708 -0.7715 -0.1112 -2.0472
 1470TIP3   OH225968   3.750   1.766   1.494 -0.0761 -0.6711 -0.3746
 1470TIP3    H125969   3.655   1.772   1.493 -0.3512 -3.4230 -2.5971
 1470TIP3    H225970   3.780   1.853   1.466 -1.9733 -0.2041 -1.1037
 1471TIP3   OH225971   1.523   3.128   7.800 -0.3095 -0.0855  0.2098
 1471TIP3    H125972   1.432   3.157   7.803  0.3862  2.3694  0.0609
 1471TIP3    H225973   1.564   3.184   7.734  1.2463 -1.3567  0.0348
 1472TIP3   OH225974   4.773   2.309   0.225  0.4072 -0.3596  0.4986
 1472TIP3    H125975   4.792   2.220   0.195 -1.2504 -0.7978  0.6657
 1472TIP3    H225976   4.682   2.305   0.255  1.3691  0.4602  3.9426
 1473TIP3   OH225977   4.538   2.859   1.161  0.4481  0.0823 -0.2216
 1473TIP3    H125978   4.546   2.899   1.075 -0.7085  3.0644  0.9187
 1473TIP3    H225979   4.469   2.793   1.151  1.4759 -0.7942 -1.8869
 1474TIP3   OH225980   4.798   6.276   1.905 -0.0641 -0.1931  0.4146
 1474TIP3    H125981   4.881   6.284   1.858 -0.0709  0.2310  0.4709
 1474TIP3    H225982   4.798   6.350   1.966 -0.5589 -0.0948  0.2961
 1475TIP3   OH225983   0.727   4.674   2.354  0.0101 -0.0728  0.1724
 1475TIP3    H125984   0.784   4.635   2.419  1.9160  1.4948 -0.4548
 1475TIP3    H225985   0.712   4.605   2.289 -1.8808 -1.6403  2.1247
 1476TIP3   OH225986   2.837   1.388   1.375  0.3425 -0.0283  0.4714
 1476TIP3    H125987   2.786   1.380   1.295 -0.7169 -0.9895  1.2001
 1476TIP3    H225988   2.848   1.297   1.405  0.8998  0.3031  1.3046
 1477TIP3   OH225989   6.140   3.489   2.457 -0.1056 -0.0805 -0.5411
 1477TIP3    H125990   6.196   3.446   2.392 -0.6109 -0.9895 -0.3984
 1477TIP3    H225991   6.199   3.546   2.506  0.6294 -0.7385 -0.6358
 1478TIP3   OH225992   0.984   1.759   0.337 -0.5106  0.2347 -0.3985
 1478TIP3    H125993   1.073   1.770   0.371 -0.6601  0.7241 -0.1682
 1478TIP3    H225994   0.988   1.677   0.287  0.4015  0.8929 -1.4708
 1479TIP3   OH225995   2.472   3.224   7.830 -0.5282 -1.0533  0.2367
 1479TIP3    H125996   2.477   3.160   7.760 -0.6829 -2.2198  1.2555
 1479TIP3    H225997   2.380   3.222   7.858 -0.4540 -0.6527  0.5226
 1480TIP3   OH225998   4.012   4.251   0.159  0.0610 -0.0236  0.3368
 1480TIP3    H125999   3.985   4.336   0.124  1.4031  0.5845  0.7458
 1480TIP3    H226000   3.967   4.187   0.103 -1.5064  0.9199  0.4381
 1481TIP3   OH226001   1.214   2.126   0.633 -0.5935 -0.3131  0.5190
 1481TIP3    H126002   1.308   2.119   0.616 -0.4999  1.0943  0.3077
 1481TIP3    H226003   1.204   2.103   0.725  0.2659  1.4984  1.1043
 1482TIP3   OH226004   2.478   6.653   2.140 -0.1426  0.2995  0.0912
 1482TIP3    H126005   2.458   6.560   2.132 -0.2207  0.2885  0.4141
 1482TIP3    H226006   2.547   6.658   2.205  0.1508  0.4340 -0.2288
 1483TIP3   OH226007   4.498   2.449   8.008  0.0367 -0.1713 -0.3784
 1483TIP3    H126008   4.450   2.405   7.938 -0.4190  2.1957 -1.6362
 1483TIP3    H226009   4.444   2.524   8.031  0.6697 -0.3268  1.8661
 1484TIP3   OH226010   3.066   3.877   2.659 -0.5726  0.2826 -0.4336
 1484TIP3    H126011   3.098   3.967   2.651 -2.1057  1.0703  1.4999
 1484TIP3    H226012   3.021   3.860   2.577  0.3915  0.9997 -1.1311
 1485TIP3   OH226013   6.512   1.749   2.643  0.7011 -0.3123  0.0200
 1485TIP3    H126014   6.503   1.654   2.635  0.5275 -0.2989  0.0516
 1485TIP3    H226015   6.484   1.783   2.558 -1.5216 -0.1447  0.7610
 1486TIP3   OH226016   4.442   6.059   2.492 -0.2356  0.0949 -0.4391
 1486TIP3    H126017   4.486   6.099   2.567  0.9688 -0.1664 -0.9966
 1486TIP3    H226018   4.425   6.132   2.432 -1.8722  0.4336  0.3692
 1487TIP3   OH226019   0.588   2.219   2.564  0.0849 -0.0298 -0.7520
 1487TIP3    H126020   0.645   2.143   2.567 -0.5184 -0.5232  2.3044
 1487TIP3    H226021   0.499   2.183   2.556 -0.1306  0.3845 -0.3003
 1488TIP3   OH226022   1.381   4.706   8.429 -0.4373  0.0052 -0.4972
 1488TIP3    H126023   1.293   4.697   8.393 -0.9711  2.1522  0.1609
 1488TIP3    H226024   1.369   4.753   8.511  1.2261 -0.7463  0.2257
 1489TIP3   OH226025   3.935   3.598   1.038 -0.2714  0.5973  0.6557
 1489TIP3    H126026   3.872   3.620   0.969 -0.2656  0.3016  0.5576
 1489TIP3    H226027   3.965   3.684   1.070  0.2245  0.7415 -0.1694
 1490TIP3   OH226028   6.472   3.723   1.240 -0.4805  0.0412 -0.1083
 1490TIP3    H126029   6.456   3.728   1.334 -0.4104 -0.3991 -0.0707
 1490TIP3    H226030   6.444   3.808   1.206  0.4818  0.6064  0.4592
 1491TIP3   OH226031   4.334   2.714   2.456  0.0128  0.1266  0.1832
 1491TIP3    H126032   4.395   2.743   2.388  0.5556  1.5566  1.2429
 1491TIP3    H226033   4.382   2.727   2.538 -1.6876  1.2575  1.0409
 1492TIP3   OH226034   3.381   4.839   3.145  0.2420  0.7800 -0.0494
 1492TIP3    H126035   3.458   4.812   3.094 -0.7210 -0.5069 -0.8843
 1492TIP3    H226036   3.409   4.918   3.190  1.9338  0.5637 -0.6423
 1493TIP3   OH226037   4.006   5.031   1.133 -0.2695 -0.5257  0.8546
 1493TIP3    H126038   3.954   5.001   1.207  1.1128  0.5676  2.3475
 1493TIP3    H226039   4.093   5.047   1.170  0.6251 -0.5226 -1.1488
 1494TIP3   OH226040   1.955   3.787   0.895  0.3470  0.2776 -0.0397
 1494TIP3    H126041   2.010   3.723   0.938  0.4271  0.3233 -0.0747
 1494TIP3    H226042   2.016   3.846   0.850  0.2985  0.7181  0.4660
 1495TIP3   OH226043   6.678   2.016   0.794 -0.5070 -0.0166 -0.0249
 1495TIP3    H126044   6.684   2.104   0.832  1.0058 -0.0286 -0.1547
 1495TIP3    H226045   6.758   2.008   0.741  0.9145 -2.4881  2.2380
 1496TIP3   OH226046   4.399   0.046   0.418  0.2181  0.6929  0.5152
 1496TIP3    H126047   4.386  -0.036   0.369  0.2749  1.4547 -0.8184
 1496TIP3    H226048   4.356   0.113   0.365  1.2164  1.7213  0.9533
 1497TIP3   OH226049   4.302   0.676   2.278 -0.3699 -0.3677 -0.1140
 1497TIP3    H126050   4.233   0.626   2.234 -1.0694  1.0934 -0.7525
 1497TIP3    H226051   4.350   0.611   2.329 -1.6022 -1.5819 -0.4381
 1498TIP3   OH226052   2.960   5.269   7.490  0.1831 -0.6634 -0.3999
 1498TIP3    H126053   3.007   5.251   7.408  0.5770 -2.2323  0.1312
 1498TIP3    H226054   2.956   5.184   7.535 -0.7258  0.0014  0.8489
 1499TIP3   OH226055   4.781   1.042   0.344  0.2283  0.0358  0.0896
 1499TIP3    H126056   4.805   0.987   0.270 -1.0941 -0.9222  0.3382
 1499TIP3    H226057   4.776   1.131   0.307  0.9261 -0.2190 -0.6424
 1500TIP3   OH226058   1.571   4.927   2.199 -0.4270  0.0862 -0.8552
 1500TIP3    H126059   1.499   4.876   2.237  0.2908 -0.8199 -0.6726
 1500TIP3    H226060   1.543   4.944   2.109 -0.3144 -1.4262 -1.2118
 1501TIP3   OH226061   1.827   5.480   7.835 -0.2825  0.6441  0.0751
 1501TIP3    H126062   1.813   5.464   7.742 -1.1075 -1.1303  0.4539
 1501TIP3    H226063   1.889   5.413   7.862 -0.5363  0.7396  0.9313
 1502TIP3   OH226064   6.183   4.420   2.388 -0.6531  0.4592  1.1438
 1502TIP3    H126065   6.206   4.512   2.378  0.5201  0.0282 -0.5769
 1502TIP3    H226066   6.124   4.402   2.315  0.9574 -0.6590  0.0336
 1503TIP3   OH226067   6.374   4.186   0.729 -0.0962 -0.0293  0.1084
 1503TIP3    H126068   6.298   4.205   0.674 -0.9472 -1.9987  0.5103
 1503TIP3    H226069   6.445   4.174   0.667 -0.6431 -0.4498 -0.4573
 1504TIP3   OH226070   2.028   3.001   7.448 -0.0031  0.1331 -0.4637
 1504TIP3    H126071   2.039   2.907   7.458 -0.0191 -0.0938 -2.2935
 1504TIP3    H226072   1.938   3.011   7.415 -0.1506  0.8356  0.1159
 1505TIP3   OH226073   3.635   6.664   0.312  0.1274 -0.2644 -0.5477
 1505TIP3    H126074   3.697   6.722   0.269 -0.4343 -0.5694 -1.8235
 1505TIP3    H226075   3.562   6.658   0.251 -1.2918  0.2884  1.0195
 1506TIP3   OH226076   6.056   5.276   1.602  0.6681 -0.0400  0.2796
 1506TIP3    H126077   6.131   5.314   1.649  0.6514  0.4458 -0.0756
 1506TIP3    H226078   5.988   5.269   1.669  0.1802  1.9637  0.0616
 1507TIP3   OH226079   4.465   1.993   8.842  0.0587  0.2577  0.1291
 1507TIP3    H126080   4.553   1.976   8.875 -0.0266 -0.5962 -0.0729
 1507TIP3    H226081   4.429   2.057   8.903 -0.0952 -1.2711  1.7066
 1508TIP3   OH226082   5.190   0.833   0.041 -0.0524  0.2304  0.0836
 1508TIP3    H126083   5.227   0.912   0.081  0.7767 -0.5672  0.9271
 1508TIP3    H226084   5.259   0.801  -0.017 -0.0050 -0.3962  0.4728
 1509TIP3   OH226085   0.952   4.450   6.934 -0.1312 -0.0834 -0.3882
 1509TIP3    H126086   0.960   4.540   6.965 -0.3167 -0.7067  1.5944
 1509TIP3    H226087   1.026   4.405   6.975 -1.5038 -1.3588  0.7818
 1510TIP3   OH226088   3.698   3.954   7.842  0.0890  0.1484  0.0443
 1510TIP3    H126089   3.661   3.916   7.762  1.5217 -1.4404  0.1071
 1510TIP3    H226090   3.776   3.903   7.860 -0.7770 -0.3081  3.1217
 1511TIP3   OH226091   2.378   2.393   7.744 -0.3450 -0.4516 -0.2946
 1511TIP3    H126092   2.286   2.387   7.718 -0.4348  0.4635 -0.2393
 1511TIP3    H226093   2.413   2.304   7.733 -1.1718 -0.7501 -0.5454
 1512TIP3   OH226094   1.750   4.533   1.031 -0.0672  0.0806  0.0062
 1512TIP3    H126095   1.751   4.469   1.102 -0.7137  0.8118  0.6978
 1512TIP3    H226096   1.780   4.484   0.954  1.5584 -0.4906  0.9585
 1513TIP3   OH226097   4.128   6.464   1.925 -0.2147  0.4838 -0.4064
 1513TIP3    H126098   4.201   6.509   1.968  0.0310  0.2207 -0.5509
 1513TIP3    H226099   4.167   6.415   1.853 -0.6772  1.2049 -1.1594
 1514TIP3   OH226100   2.133   4.055   8.644  0.3963  0.4041 -0.4907
 1514TIP3    H126101   2.147   4.108   8.566  2.5591  0.9876  0.2222
 1514TIP3    H226102   2.220   4.048   8.684 -0.6666  0.3030  1.9787
 1515TIP3   OH226103   2.415   1.319   0.314 -0.1441 -0.1179  0.1729
 1515TIP3    H126104   2.430   1.413   0.325 -1.3062  0.2320 -1.0122
 1515TIP3    H226105   2.464   1.296   0.235  0.1403 -0.5140  0.4612
 1516TIP3   OH226106   3.577   5.032   2.839  0.1715  0.0768 -0.0608
 1516TIP3    H126107   3.665   5.067   2.846  0.7437 -1.1489 -0.8309
 1516TIP3    H226108   3.556   5.036   2.746  0.0020 -0.9582 -0.0871
 1517TIP3   OH226109   3.743   1.888   1.797  0.4228 -0.2570  0.4265
 1517TIP3    H126110   3.740   1.983   1.787 -0.7729 -0.3319 -0.0741
 1517TIP3    H226111   3.836   1.866   1.788  0.4438  0.5685 -2.6114
 1518TIP3   OH226112   3.172   4.241   8.140  0.1092  0.5909  0.2997
 1518TIP3    H126113   3.108   4.176   8.111 -3.3548  3.6627  0.2485
 1518TIP3    H226114   3.170   4.236   8.235  1.6269 -0.8011  0.3029
 1519TIP3   OH226115   3.674   1.297   8.849 -0.7028 -0.7737  0.3323
 1519TIP3    H126116   3.755   1.337   8.880 -0.3198 -1.7236  0.6157
 1519TIP3    H226117   3.618   1.370   8.825  1.0622 -0.0788 -2.0110
 1520TIP3   OH226118   3.467   4.580   2.445 -0.3715  0.2851 -0.6355
 1520TIP3    H126119   3.505   4.516   2.385 -0.7860  3.0432 -4.1615
 1520TIP3    H226120   3.542   4.620   2.489  0.1940 -0.0304 -1.2867
 1521TIP3   OH226121   5.750   5.700   1.322 -0.1885 -0.1740 -0.1190
 1521TIP3    H126122   5.792   5.679   1.239  1.4335  2.4915 -0.1116
 1521TIP3    H226123   5.812   5.759   1.366 -2.5408  1.3779  1.3859
 1522TIP3   OH226124   3.405   4.029   1.532 -0.2530 -0.5783 -0.1532
 1522TIP3    H126125   3.438   4.062   1.449  1.0502  0.7245  0.8308
 1522TIP3    H226126   3.326   3.980   1.509 -1.3861  1.8942 -1.8824
 1523TIP3   OH226127   1.099   3.291   2.515  0.3512 -0.9572  0.3229
 1523TIP3    H126128   1.126   3.376   2.551  1.1309 -0.9410 -0.2699
 1523TIP3    H226129   1.106   3.301   2.420  0.8952 -1.8105  0.2542
 1524TIP3   OH226130   5.568   3.044   1.203 -0.8472  0.6142  0.4662
 1524TIP3    H126131   5.534   2.961   1.237  3.5897 -2.0843 -0.8655
 1524TIP3    H226132   5.612   3.084   1.278 -0.3074  0.1202  0.4223
 1525TIP3   OH226133   0.489   6.135   1.814 -0.3774  0.4821  0.0541
 1525TIP3    H126134   0.516   6.123   1.905  1.5650 -0.1948 -0.5606
 1525TIP3    H226135   0.572   6.142   1.765 -1.3376 -0.6357 -1.8375
 1526TIP3   OH226136   6.333   3.423   1.391 -0.4372  0.6708 -0.5480
 1526TIP3    H126137   6.292   3.441   1.307  1.1311  1.4185 -1.2084
 1526TIP3    H226138   6.419   3.387   1.368 -1.0600 -1.8459  0.7639
 1527TIP3   OH226139   2.439   6.156   0.791 -0.7158 -0.8922  0.5655
 1527TIP3    H126140   2.467   6.108   0.713  2.0204 -1.8167  1.9770
 1527TIP3    H226141   2.357   6.198   0.765 -0.0673 -1.3430 -2.7068
 1528TIP3   OH226142   1.106   6.458   8.528  0.5005 -0.2137 -0.1949
 1528TIP3    H126143   1.093   6.487   8.618  1.0690  0.1743 -0.2391
 1528TIP3    H226144   1.017   6.449   8.493  0.2787 -0.3205  0.3865
 1529TIP3   OH226145   0.647   5.818   2.275  0.4579 -0.0111 -0.2814
 1529TIP3    H126146   0.554   5.816   2.253  0.5941  0.8141 -0.9503
 1529TIP3    H226147   0.669   5.911   2.283  1.4551 -0.1576 -1.1235
 1530TIP3   OH226148   2.742   3.021   7.602 -0.7297  0.4491 -0.7170
 1530TIP3    H126149   2.787   2.939   7.579 -1.6190 -0.2279 -0.1357
 1530TIP3    H226150   2.802   3.066   7.661  0.4160  0.9453 -2.1909
 1531TIP3   OH226151   2.035   0.195   1.075  0.4710  0.3978 -0.1368
 1531TIP3    H126152   2.103   0.261   1.064 -0.1338  1.1932  0.7157
 1531TIP3    H226153   1.956   0.235   1.038  0.5042 -0.6350 -1.4060
 1532TIP3   OH226154   4.931   0.958   1.657  0.1737 -0.5280  0.1933
 1532TIP3    H126155   4.890   0.885   1.704  1.7196 -2.7645 -1.6446
 1532TIP3    H226156   4.901   0.948   1.567  0.8934  0.7808 -0.2137
 1533TIP3   OH226157   0.721   6.088   2.215 -0.1926 -0.4469 -0.4148
 1533TIP3    H126158   0.688   6.163   2.264  0.7396 -0.0182 -0.4335
 1533TIP3    H226159   0.646   6.059   2.164 -1.9550 -2.3288  2.8757
 1534TIP3   OH226160   0.743   0.154   8.214  0.3954  0.6444  0.1925
 1534TIP3    H126161   0.804   0.222   8.184  0.2019  0.1244 -1.5000
 1534TIP3    H226162   0.794   0.073   8.208 -0.7475  0.0211 -2.4725
 1535TIP3   OH226163   4.432   5.651   7.597  0.3043 -0.0641 -0.2111
 1535TIP3    H126164   4.352   5.599   7.604  0.7034 -0.4670  1.8300
 1535TIP3    H226165   4.403   5.741   7.610 -0.0342 -0.0100 -1.2321
 1536TIP3   OH226166   1.584   4.920   1.733 -0.2550  0.0004  0.0308
 1536TIP3    H126167   1.511   4.889   1.679 -0.8072 -0.1811  0.8506
 1536TIP3    H226168   1.624   4.840   1.768  0.0371  0.1179 -0.0308
 1537TIP3   OH226169   0.021   5.815   1.089  0.1903 -0.1157 -0.6957
 1537TIP3    H126170   0.074   5.891   1.064  0.3976  0.4754  1.3451
 1537TIP3    H226171   0.003   5.770   1.006  0.8671  1.6214 -1.8507
 1538TIP3   OH226172   0.339   4.835   0.274 -0.5461 -0.7140 -0.1076
 1538TIP3    H126173   0.428   4.805   0.292 -0.3130 -0.0237 -0.0778
 1538TIP3    H226174   0.283   4.766   0.309 -0.0392 -0.7401  0.6809
 1539TIP3   OH226175   6.379   6.212   1.545  0.4479  0.3074  0.0003
 1539TIP3    H126176   6.389   6.266   1.624  1.8552  0.6411 -0.3804
 1539TIP3    H226177   6.393   6.273   1.473  0.3833 -0.2354 -0.4747
 1540TIP3   OH226178   3.349   1.147   8.636  0.4841 -0.3868  0.1865
 1540TIP3    H126179   3.437   1.116   8.613  0.8788  0.4518  0.5034
 1540TIP3    H226180   3.338   1.121   8.728  0.4702 -0.3478  0.1959
 1541TIP3   OH226181   0.189   6.502   0.775 -0.5223 -0.7264  0.7432
 1541TIP3    H126182   0.194   6.411   0.803 -2.5246 -0.6431  1.5611
 1541TIP3    H226183   0.277   6.537   0.790 -0.5045 -1.6899  3.5119
 1542TIP3   OH226184   0.835   1.061   2.730  0.4648  0.3472 -0.3060
 1542TIP3    H126185   0.911   1.078   2.674  2.0169  2.0935  2.1291
 1542TIP3    H226186   0.867   1.074   2.819 -2.0206 -1.7120  1.0254
 1543TIP3   OH226187   1.851   0.127   7.959 -0.1462  0.0792  0.2770
 1543TIP3    H126188   1.914   0.101   7.892 -0.2995 -0.5680  0.3814
 1543TIP3    H226189   1.818   0.212   7.930  1.5622  0.9506  0.7673
 1544TIP3   OH226190   2.583   0.754   1.448  0.0380 -0.2430 -0.0621
 1544TIP3    H126191   2.581   0.687   1.379  0.6757 -0.0571 -0.2775
 1544TIP3    H226192   2.496   0.752   1.487 -0.3174 -0.3963 -0.8407
 1545TIP3   OH226193   5.347   3.051   8.265  0.1869  0.2614 -0.3641
 1545TIP3    H126194   5.315   3.137   8.237 -1.6541  0.1444  1.2499
 1545TIP3    H226195   5.347   3.055   8.361 -0.0204 -1.5749 -0.2582
 1546TIP3   OH226196   3.351   2.671   3.303 -0.0552 -0.5825  0.1183
 1546TIP3    H126197   3.426   2.693   3.360 -0.4363 -1.6122  1.0591
 1546TIP3    H226198   3.332   2.752   3.256 -0.1060  0.5200  1.9358
 1547TIP3   OH226199   6.310   5.755   8.776  0.2821 -0.9717 -0.5043
 1547TIP3    H126200   6.293   5.848   8.790  0.9697 -0.9121 -0.0280
 1547TIP3    H226201   6.405   5.749   8.764  0.4312 -1.7615  0.8191
 1548TIP3   OH226202   0.395   1.288   1.542 -0.3806 -0.0469 -0.2878
 1548TIP3    H126203   0.319   1.292   1.484 -0.3137  1.0979 -0.3319
 1548TIP3    H226204   0.453   1.357   1.510  0.0248  0.0470  0.6231
 1549TIP3   OH226205   6.109   4.124   8.025 -0.2843 -0.2158 -0.1931
 1549TIP3    H126206   6.162   4.198   8.056  0.3672 -0.6349 -0.2779
 1549TIP3    H226207   6.024   4.163   8.003  0.3864  0.7109 -1.2749
 1550TIP3   OH226208   1.204   3.006   1.646 -0.1257 -0.0965 -0.3648
 1550TIP3    H126209   1.133   2.965   1.697 -0.6392 -1.6550 -2.2128
 1550TIP3    H226210   1.283   2.988   1.697 -0.9929  1.8884  1.8760
 1551TIP3   OH226211   5.586   4.726   8.184  0.5656 -0.2056  0.3914
 1551TIP3    H126212   5.602   4.690   8.272 -0.5986  3.8478  2.5032
 1551TIP3    H226213   5.615   4.817   8.190 -0.7408  0.5880 -3.0731
 1552TIP3   OH226214   4.517   3.545   0.056 -0.0713  0.0723  0.8143
 1552TIP3    H126215   4.591   3.575   0.109  0.6678 -0.8325  0.3340
 1552TIP3    H226216   4.538   3.573  -0.033 -0.6303  0.3717  0.7711
 1553TIP3   OH226217   3.188   1.711   1.465  0.3075  0.2646 -0.2815
 1553TIP3    H126218   3.134   1.726   1.543  0.3113 -0.4763 -0.1303
 1553TIP3    H226219   3.149   1.635   1.422  1.1973 -0.2699 -0.1855
 1554TIP3   OH226220   6.307   2.239   1.312 -0.2379  0.4069 -0.1398
 1554TIP3    H126221   6.369   2.302   1.349  1.3819 -0.6119 -0.9754
 1554TIP3    H226222   6.245   2.222   1.383 -0.3967  2.4698  0.2843
 1555TIP3   OH226223   0.778   2.505   1.418  0.6774  0.3473  0.2330
 1555TIP3    H126224   0.818   2.575   1.470  0.6394  1.7749 -1.5330
 1555TIP3    H226225   0.692   2.539   1.394  0.3239 -0.6716  0.0105
 1556TIP3   OH226226   1.089   4.554   8.488  0.2791  0.4950  0.0282
 1556TIP3    H126227   1.101   4.589   8.577  0.3208  0.8542 -0.1188
 1556TIP3    H226228   1.046   4.624   8.440 -0.3544  0.0489 -0.0594
 1557TIP3   OH226229   2.672   4.385   0.117 -0.1058  0.4651 -0.1436
 1557TIP3    H126230   2.609   4.420   0.180 -0.2387 -1.1056  0.6544
 1557TIP3    H226231   2.707   4.306   0.159  1.4783  0.6153 -1.1057
 1558TIP3   OH226232   1.438   5.719   0.070 -0.4686  0.0270 -0.3918
 1558TIP3    H126233   1.382   5.642   0.068  1.1114 -1.2078  0.4084
 1558TIP3    H226234   1.527   5.684   0.066  0.6702  1.2622  5.4466
 1559TIP3   OH226235   2.266   6.234   1.053  0.2927 -0.7428 -0.0794
 1559TIP3    H126236   2.301   6.323   1.055 -1.5474  0.4051 -5.0762
 1559TIP3    H226237   2.343   6.178   1.038  1.1437  0.3785 -0.0448
 1560TIP3   OH226238   5.327   6.709   2.706  0.0442 -0.1262  0.1601
 1560TIP3    H126239   5.369   6.711   2.792  0.7754  2.1540 -0.1664
 1560TIP3    H226240   5.252   6.768   2.715 -0.3208 -0.4703 -0.5603
 1561TIP3   OH226241   1.192   5.774   2.336  0.1478  0.5263 -0.1520
 1561TIP3    H126242   1.218   5.684   2.315  1.2760  0.4557  1.3796
 1561TIP3    H226243   1.127   5.764   2.406 -0.4444  0.8876 -0.6383
 1562TIP3   OH226244   3.530   5.333   1.040 -0.2176 -0.3393 -0.0170
 1562TIP3    H126245   3.624   5.313   1.032 -0.3113 -1.1052  0.7097
 1562TIP3    H226246   3.515   5.336   1.135 -1.2404 -1.7495 -0.1126
 1563TIP3   OH226247   0.183   5.605   7.593 -0.0454 -0.0220  0.3655
 1563TIP3    H126248   0.191   5.510   7.600 -1.4004 -0.2047 -0.3481
 1563TIP3    H226249   0.146   5.620   7.507  1.7471  1.2731 -0.2471
 1564TIP3   OH226250   5.219   4.912   0.789 -0.0223  0.4513  0.1784
 1564TIP3    H126251   5.216   4.832   0.841 -0.7585 -1.4152 -2.5613
 1564TIP3    H226252   5.167   4.893   0.711 -1.2974  4.0477 -0.0481
 1565TIP3   OH226253   4.908   2.658   0.915  0.0520 -0.2053 -0.0023
 1565TIP3    H126254   4.977   2.676   0.851 -1.5213 -0.7567 -1.9748
 1565TIP3    H226255   4.846   2.731   0.904 -0.5219 -0.6105  0.4879
 1566TIP3   OH226256   5.191   2.130   2.237  0.3019  0.2379  0.4164
 1566TIP3    H126257   5.128   2.105   2.304  1.6491 -0.8585  1.3122
 1566TIP3    H226258   5.138   2.174   2.170 -1.5458 -1.4778  0.6740
 1567TIP3   OH226259   3.614   5.074   0.331  0.6872 -0.0559 -0.2524
 1567TIP3    H126260   3.571   5.086   0.416  0.2097 -1.2580 -0.3014
 1567TIP3    H226261   3.597   5.156   0.284  1.0613  0.6750  0.8423
 1568TIP3   OH226262   3.630   0.365   1.787  0.0192  0.9065  0.1784
 1568TIP3    H126263   3.587   0.288   1.824 -0.0829  1.9384  2.3351
 1568TIP3    H226264   3.723   0.351   1.804  0.0036  1.2411  0.5428
 1569TIP3   OH226265   4.750   2.220   0.983 -0.3976 -0.5434  0.3249
 1569TIP3    H126266   4.754   2.299   1.037  2.9969  1.1379 -2.0252
 1569TIP3    H226267   4.679   2.236   0.921 -0.6990 -0.0410  0.7961
 1570TIP3   OH226268   0.087   0.095   2.054 -0.3343 -0.0789  0.5763
 1570TIP3    H126269   0.093   0.109   1.959 -0.8319 -2.4422  0.1302
 1570TIP3    H226270  -0.007   0.088   2.071 -0.1865 -2.6996  0.6610
 1571TIP3   OH226271   4.838   2.526   0.062  0.4685  0.0996 -0.2605
 1571TIP3    H126272   4.796   2.466   0.124  0.8941 -0.6852 -0.7225
 1571TIP3    H226273   4.779   2.529  -0.013 -0.5718  1.8590  0.5658
 1572TIP3   OH226274   2.086   4.948   1.285 -0.1173 -0.5732 -0.1321
 1572TIP3    H126275   2.108   4.983   1.198 -2.8050  0.0688 -0.6426
 1572TIP3    H226276   2.033   4.870   1.266  0.0153 -0.9394  0.9601
 1573TIP3   OH226277   1.183   0.570   8.565 -0.2633  0.8026  0.2432
 1573TIP3    H126278   1.103   0.539   8.609 -0.5291  0.5266 -0.4150
 1573TIP3    H226279   1.243   0.591   8.636 -0.9748  1.1569  0.7606
 1574TIP3   OH226280   4.791   6.204   8.196 -0.5004  0.6353  0.3083
 1574TIP3    H126281   4.878   6.173   8.223 -0.7756 -1.8521 -1.2737
 1574TIP3    H226282   4.738   6.198   8.275  0.5726  1.5591  1.1386
 1575TIP3   OH226283   2.321   1.957   0.466 -0.4286 -0.5926  0.6659
 1575TIP3    H126284   2.285   1.869   0.458 -0.9617 -0.4285  1.1763
 1575TIP3    H226285   2.416   1.944   0.463 -0.5074 -0.9379 -1.5611
 1576TIP3   OH226286   1.696   2.025   8.559 -0.0280  0.3626 -0.2211
 1576TIP3    H126287   1.780   1.981   8.556 -0.2916 -0.0972 -1.0252
 1576TIP3    H226288   1.671   2.038   8.467 -1.8591 -1.4916 -0.0612
 1577TIP3   OH226289   0.663   6.563   1.732  0.2199  0.0656 -0.4224
 1577TIP3    H126290   0.573   6.563   1.700  0.0638 -2.1255 -0.1401
 1577TIP3    H226291   0.665   6.632   1.798 -1.6817 -0.8156  0.6456
 1578TIP3   OH226292   6.372   3.498   3.098  0.8211 -0.3398  0.3120
 1578TIP3    H126293   6.336   3.582   3.069  3.1589  0.3644 -0.7505
 1578TIP3    H226294   6.396   3.513   3.190 -1.0029 -0.6733  0.8879
 1579TIP3   OH226295   5.875   4.999   0.262 -1.1122 -0.2101  0.4224
 1579TIP3    H126296   5.823   4.996   0.181 -1.1527 -0.8682  0.4706
 1579TIP3    H226297   5.966   4.995   0.232 -1.1094  0.0649  0.3865
 1580TIP3   OH226298   1.448   2.381   8.048 -0.0530 -0.0809 -0.0558
 1580TIP3    H126299   1.531   2.353   8.008  0.1563  0.0356  0.3023
 1580TIP3    H226300   1.385   2.315   8.019  0.6398 -1.5385  1.6091
 1581TIP3   OH226301   1.869   0.569   1.960 -0.2266 -0.8641 -0.3028
 1581TIP3    H126302   1.808   0.635   1.993  1.1166  0.8891 -1.1539
 1581TIP3    H226303   1.849   0.490   2.010 -1.6387  0.2915  1.0404
 1582TIP3   OH226304   1.553   1.691   3.507  0.2263  0.5298  0.3085
 1582TIP3    H126305   1.590   1.604   3.521  2.1880  1.4897  1.3674
 1582TIP3    H226306   1.625   1.744   3.472 -1.3503  1.3714 -1.8906
 1583TIP3   OH226307   1.723   6.655   0.709 -0.5181 -0.1280  0.0435
 1583TIP3    H126308   1.727   6.566   0.745 -0.3082  0.2047  0.8629
 1583TIP3    H226309   1.713   6.712   0.785  0.2607  0.6201 -0.3884
 1584TIP3   OH226310   3.900   1.798   8.408 -0.5824 -0.0790  0.0614
 1584TIP3    H126311   3.949   1.854   8.348 -0.1131 -0.7942 -0.2330
 1584TIP3    H226312   3.850   1.739   8.351 -0.6233 -0.3417  0.3643
 1585TIP3   OH226313   0.050   1.419   1.176 -0.0400 -0.0790 -0.0794
 1585TIP3    H126314   0.002   1.336   1.177  1.5630 -1.1939 -2.9138
 1585TIP3    H226315   0.088   1.427   1.264 -0.9482 -1.8821  0.5117
 1586TIP3   OH226316   4.729   6.054   0.154  0.1223 -0.1865 -0.1292
 1586TIP3    H126317   4.648   6.075   0.202  1.4726  1.4882  1.5443
 1586TIP3    H226318   4.773   5.990   0.208  1.6595  1.7130  1.0030
 1587TIP3   OH226319   5.177   0.344   2.640  0.6055 -0.3253  0.1191
 1587TIP3    H126320   5.117   0.277   2.606  1.1244 -1.9639  2.2024
 1587TIP3    H226321   5.120   0.408   2.682  0.2086 -1.4629  1.3956
 1588TIP3   OH226322   3.566   1.048   0.693  0.2995 -0.4553 -0.3218
 1588TIP3    H126323   3.622   1.124   0.706  0.3950 -0.9030  2.6209
 1588TIP3    H226324   3.514   1.042   0.774 -0.7708 -2.6399 -1.0794
 1589TIP3   OH226325   0.885   6.086   2.487  0.1432 -0.4986 -0.5662
 1589TIP3    H126326   0.975   6.096   2.454  0.2949 -3.0200 -1.0921
 1589TIP3    H226327   0.832   6.136   2.426  0.9403 -1.1144 -1.8014
 1590TIP3   OH226328   2.659   4.822   0.339  0.6465  0.3145 -0.0725
 1590TIP3    H126329   2.637   4.908   0.376  0.0015  0.1222  0.0015
 1590TIP3    H226330   2.623   4.824   0.250  2.1089  0.7430 -0.7003
 1591TIP3   OH226331   3.900   6.012   0.439 -0.2656  0.3326 -0.0149
 1591TIP3    H126332   3.878   6.095   0.481  0.4926  0.6929 -0.3018
 1591TIP3    H226333   3.952   6.037   0.362  1.1107 -0.4389  0.6103
 1592TIP3   OH226334   2.344   3.639   7.853 -0.0098  0.4851  0.5926
 1592TIP3    H126335   2.301   3.567   7.807  0.7728 -0.7099  1.6497
 1592TIP3    H226336   2.339   3.713   7.793 -2.5616  0.1171  0.2342
 1593TIP3   OH226337   5.374   2.347   2.120 -0.0817 -0.2371  0.1824
 1593TIP3    H126338   5.301   2.319   2.065  0.7307 -0.6279 -0.7329
 1593TIP3    H226339   5.343   2.337   2.210 -0.6992 -1.6568 -0.1668
 1594TIP3   OH226340   3.307   6.434   2.003  0.1727  0.1458 -0.2931
 1594TIP3    H126341   3.284   6.357   1.952  0.2323 -0.6472  0.8307
 1594TIP3    H226342   3.402   6.432   2.010  0.1651  0.2343 -0.1405
 1595TIP3   OH226343   0.274   2.213   8.307  0.3954 -0.3360  0.3157
 1595TIP3    H126344   0.296   2.305   8.322  0.1628 -0.3383  0.6894
 1595TIP3    H226345   0.186   2.203   8.343  0.5121 -0.7630  0.4973
 1596TIP3   OH226346   5.896   0.743   2.881 -0.0765 -0.1874  0.2854
 1596TIP3    H126347   5.802   0.740   2.899 -0.4535 -1.2124 -1.6347
 1596TIP3    H226348   5.907   0.819   2.823 -0.0929 -1.2688 -1.1966
 1597TIP3   OH226349   0.172   2.832   8.155  0.1643  0.1943 -0.1107
 1597TIP3    H126350   0.206   2.749   8.190 -0.3480 -0.3363 -0.8151
 1597TIP3    H226351   0.248   2.873   8.114  0.5009  0.2427  0.5478
 1598TIP3   OH226352   3.827   2.527   8.303  0.0783 -0.2426 -0.1640
 1598TIP3    H126353   3.802   2.458   8.365 -1.0542 -0.0669 -0.4154
 1598TIP3    H226354   3.862   2.597   8.358  0.3268 -0.6202  0.1659
 1599TIP3   OH226355   5.673   5.104   1.099  0.5559 -0.0937 -0.1217
 1599TIP3    H126356   5.651   5.188   1.059 -1.7735  0.9645  2.9883
 1599TIP3    H226357   5.623   5.040   1.048  0.0534  0.7868 -0.7599
 1600TIP3   OH226358   3.944   2.969   8.732  0.6972 -0.2553 -0.4895
 1600TIP3    H126359   3.872   3.024   8.763  1.4324  0.0762  0.6928
 1600TIP3    H226360   4.023   3.017   8.757  1.3434 -1.0874 -0.8814
 1601TIP3   OH226361   6.096   6.387   0.816  0.0215 -0.1218  0.2150
 1601TIP3    H126362   6.004   6.363   0.804 -0.0142  0.5140 -0.8986
 1601TIP3    H226363   6.116   6.443   0.742  0.7157  1.5329  1.5780
 1602TIP3   OH226364   5.290   0.416   2.322 -0.0889  0.4013  0.3348
 1602TIP3    H126365   5.332   0.445   2.241 -2.1048 -0.1007 -0.9570
 1602TIP3    H226366   5.296   0.321   2.320 -1.5257  0.2942 -0.0608
 1603TIP3   OH226367   0.898   1.987   7.207 -0.2066 -0.2768  0.1708
 1603TIP3    H126368   0.814   2.020   7.177 -0.1556  1.3468  1.6643
 1603TIP3    H226369   0.886   1.970   7.300  1.5521  1.7806  0.8721
 1604TIP3   OH226370   0.443   4.422   1.304 -0.1432 -0.0483  0.0849
 1604TIP3    H126371   0.492   4.479   1.245  1.9971 -1.8295 -0.0029
 1604TIP3    H226372   0.424   4.344   1.251 -0.5232 -0.5699  0.9706
 1605TIP3   OH226373   4.413   0.826   2.061  0.4727  0.1768  0.4675
 1605TIP3    H126374   4.483   0.890   2.074  0.7829 -0.0050 -0.2515
 1605TIP3    H226375   4.389   0.799   2.149  0.3091  1.3137  0.7939
 1606TIP3   OH226376   2.808   6.738   2.752  0.5013 -0.6258  0.3242
 1606TIP3    H126377   2.806   6.668   2.687  2.0422  0.2964 -0.7871
 1606TIP3    H226378   2.716   6.760   2.767  0.0992 -0.9758 -1.4589
 1607TIP3   OH226379   4.538   4.353   7.838 -0.0234 -0.9161  0.1182
 1607TIP3    H126380   4.575   4.397   7.761 -0.4353  0.2403  0.5621
 1607TIP3    H226381   4.605   4.290   7.864  1.1440  0.3113  0.2004
 1608TIP3   OH226382   0.548   4.225   7.346 -0.0044  0.1019 -0.1297
 1608TIP3    H126383   0.452   4.221   7.343 -0.1336  0.8144  1.7529
 1608TIP3    H226384   0.574   4.252   7.258 -1.3576 -2.2695 -1.3555
 1609TIP3   OH226385   5.832   5.451   1.632  0.1054 -0.1966  0.6748
 1609TIP3    H126386   5.807   5.359   1.619  0.0123 -0.1341  0.4071
 1609TIP3    H226387   5.902   5.448   1.696  1.1811 -0.5815 -0.4763
 1610TIP3   OH226388   4.097   3.869   8.832  0.5055 -0.2041  0.0181
 1610TIP3    H126389   4.067   3.799   8.774  2.0741  0.2366 -1.4174
 1610TIP3    H226390   4.025   3.882   8.894 -0.8387 -1.3729 -1.2255
 1611TIP3   OH226391   3.613   0.339   8.858 -0.6013 -0.5276 -0.0751
 1611TIP3    H126392   3.654   0.259   8.825  0.3489 -0.0144 -0.1952
 1611TIP3    H226393   3.560   0.311   8.932  0.1912 -1.1922  0.2592
 1612TIP3   OH226394   0.342   5.706   8.791 -0.2977 -0.3110 -0.7190
 1612TIP3    H126395   0.407   5.687   8.858  0.2574  1.5748 -0.6411
 1612TIP3    H226396   0.392   5.707   8.709 -0.4714 -0.1608 -0.8256
 1613TIP3   OH226397   5.507   0.329   2.600  0.0168  0.5521  0.5421
 1613TIP3    H126398   5.508   0.351   2.693  3.5876 -0.6773  0.9582
 1613TIP3    H226399   5.523   0.234   2.598 -0.1635  0.5339 -1.3061
 1614TIP3   OH226400   0.356   6.170   8.133  0.1951  0.3510 -0.2756
 1614TIP3    H126401   0.301   6.163   8.055 -0.4119  0.3019  0.1472
 1614TIP3    H226402   0.427   6.228   8.107  0.0060  0.3262 -0.8686
 1615TIP3   OH226403   5.075   3.175   8.884  0.7589 -0.5027 -0.0650
 1615TIP3    H126404   5.139   3.236   8.847  1.1736  1.0052  2.8568
 1615TIP3    H226405   5.128   3.103   8.918  0.7687 -0.1294  0.7380
 1616TIP3   OH226406   4.005   6.679   0.290 -0.4502  0.5315  0.5116
 1616TIP3    H126407   3.959   6.761   0.275  0.0429  0.9018  0.9752
 1616TIP3    H226408   3.978   6.622   0.218 -0.0274  1.4245 -0.3653
 1617TIP3   OH226409   3.626   1.134   0.433 -0.0624  0.3004  0.0139
 1617TIP3    H126410   3.551   1.159   0.379  1.9169 -2.1427 -4.3937
 1617TIP3    H226411   3.591   1.068   0.492 -2.0534  1.9799  0.8420
 1618TIP3   OH226412   0.805   0.853   2.141  0.3336  0.2287 -0.3114
 1618TIP3    H126413   0.741   0.784   2.126 -0.5572  1.1416 -0.8248
 1618TIP3    H226414   0.881   0.808   2.176 -0.7057 -0.8385  0.6329
 1619TIP3   OH226415   2.079   2.455   2.986  0.0455  0.0414  0.2250
 1619TIP3    H126416   2.033   2.373   2.973 -0.8873  0.5085  0.4854
 1619TIP3    H226417   2.017   2.511   3.033 -0.5844  2.0112 -2.6561
 1620TIP3   OH226418   3.841   3.472   8.098  0.2996 -0.3578 -0.2314
 1620TIP3    H126419   3.763   3.425   8.067  0.0146  0.0438 -0.1287
 1620TIP3    H226420   3.807   3.538   8.159  0.6596  0.2015 -0.6208
 1621TIP3   OH226421   5.823   1.964   0.025 -0.3126 -0.6749 -0.8437
 1621TIP3    H126422   5.829   1.950   0.120  0.9023  1.9690 -0.4498
 1621TIP3    H226423   5.766   2.040   0.015 -1.5329 -1.7335 -2.3756
 1622TIP3   OH226424   5.194   1.684   8.560 -0.1780 -0.6074  0.1931
 1622TIP3    H126425   5.158   1.626   8.627 -0.0051 -1.4367 -0.4172
 1622TIP3    H226426   5.222   1.626   8.490 -3.1038  0.3610 -1.9924
 1623TIP3   OH226427   5.653   3.990   8.283 -0.1925 -0.1673 -0.7565
 1623TIP3    H126428   5.632   4.077   8.251 -0.8750 -0.1211 -0.2032
 1623TIP3    H226429   5.608   3.983   8.367 -0.2588 -1.1013 -0.8555
 1624TIP3   OH226430   6.004   4.657   2.228  0.3202  0.3653 -0.3338
 1624TIP3    H126431   5.911   4.674   2.217  0.4088  0.5912 -0.7374
 1624TIP3    H226432   6.020   4.575   2.183  0.1391 -0.1706  0.5431
 1625TIP3   OH226433   3.056   6.335   0.161  0.2210  0.4428  0.4574
 1625TIP3    H126434   2.974   6.368   0.196 -0.8671 -1.1497 -0.4734
 1625TIP3    H226435   3.080   6.397   0.092 -1.5647 -0.3652 -0.9815
 1626TIP3   OH226436   6.300   1.817   7.844 -0.7384 -0.1677 -0.5447
 1626TIP3    H126437   6.249   1.791   7.768  1.3004 -1.2125 -1.6659
 1626TIP3    H226438   6.389   1.829   7.810  0.2532 -0.6872  1.6665
 1627TIP3   OH226439   6.169   4.154   8.393  0.3937 -0.0922  0.0986
 1627TIP3    H126440   6.074   4.167   8.395  0.6046  1.9285 -0.0982
 1627TIP3    H226441   6.183   4.093   8.320 -0.7382 -0.2366 -0.0226
 1628TIP3   OH226442   5.810   1.868   2.622  0.7544 -0.1014 -0.3844
 1628TIP3    H126443   5.903   1.850   2.627  0.2064 -3.5996 -0.6870
 1628TIP3    H226444   5.785   1.890   2.713  1.5571 -0.9784  0.0574
 1629TIP3   OH226445   1.033   3.333   1.841 -0.6065 -0.2241 -0.0015
 1629TIP3    H126446   1.055   3.289   1.923  0.7180  1.5800  0.6766
 1629TIP3    H226447   1.110   3.387   1.821 -1.1032 -0.2326 -2.1830
 1630TIP3   OH226448   4.292   6.295   3.141 -0.1488 -0.0736  0.1944
 1630TIP3    H126449   4.198   6.290   3.125  0.0802 -1.7825 -0.8632
 1630TIP3    H226450   4.304   6.261   3.230 -0.5110 -0.0630  0.2470
 1631TIP3   OH226451   2.053   4.668   2.067  0.2387  0.2553 -0.2178
 1631TIP3    H126452   1.996   4.599   2.033 -0.4625  1.3455 -1.3530
 1631TIP3    H226453   2.074   4.641   2.156 -1.2770 -0.6542 -0.1158
 1632TIP3   OH226454   5.634   6.615   3.011 -0.6946 -0.1226  0.0638
 1632TIP3    H126455   5.542   6.598   3.033 -1.0353 -1.6528 -2.1883
 1632TIP3    H226456   5.681   6.538   3.045 -0.0722  0.9832  1.8459
 1633TIP3   OH226457   3.636   5.061   8.554 -0.8991 -0.3662 -0.4180
 1633TIP3    H126458   3.603   5.108   8.631  0.9919  0.8347 -0.2977
 1633TIP3    H226459   3.681   4.984   8.590  0.2017  0.3271 -0.2784
 1634TIP3   OH226460   6.485   0.313   3.366  0.1269 -0.4738 -0.1124
 1634TIP3    H126461   6.558   0.255   3.387 -0.3287 -1.1490 -0.3731
 1634TIP3    H226462   6.525   0.386   3.319  0.9607  0.3397  1.7638
 1635TIP3   OH226463   1.510   6.292   8.369  0.0258  0.0344  0.9807
 1635TIP3    H126464   1.513   6.387   8.359 -0.2199  0.3469  3.2599
 1635TIP3    H226465   1.574   6.273   8.438  0.8278 -1.6030 -0.1387
 1636TIP3   OH226466   5.218   3.410   8.299  0.3339 -0.2163  0.6202
 1636TIP3    H126467   5.269   3.489   8.282 -0.4948  0.1027 -0.4657
 1636TIP3    H226468   5.173   3.426   8.381 -0.7147  0.9223 -0.1487
 1637TIP3   OH226469   6.027   3.984   0.245 -0.2968  0.6994 -0.1814
 1637TIP3    H126470   5.996   3.951   0.330  0.5870  1.2317  0.3629
 1637TIP3    H226471   6.120   3.965   0.245 -0.0928  1.6514 -0.5851
 1638TIP3   OH226472   1.802   1.775   2.423 -0.4059  0.0814 -0.5682
 1638TIP3    H126473   1.838   1.756   2.510 -0.7034 -0.4918 -0.5590
 1638TIP3    H226474   1.737   1.844   2.438  2.6810  3.3539 -1.0088
 1639TIP3   OH226475   4.374   4.340   0.455  0.0652  0.1194 -0.0448
 1639TIP3    H126476   4.318   4.358   0.380 -0.8690  0.8900  0.8031
 1639TIP3    H226477   4.334   4.263   0.496  1.4868 -1.2853 -1.1823
 1640TIP3   OH226478   1.040   4.964   0.259  0.0137 -0.2558 -0.3251
 1640TIP3    H126479   1.102   4.938   0.190 -0.2386  0.5529 -0.8734
 1640TIP3    H226480   1.047   5.059   0.263 -0.1055 -0.2791  0.6597
 1641TIP3   OH226481   1.117   6.214   1.889  0.3718 -0.5552  0.0230
 1641TIP3    H126482   1.144   6.130   1.926  1.5296 -0.5624 -0.7723
 1641TIP3    H226483   1.026   6.225   1.917 -0.8015 -3.4348 -2.2140
 1642TIP3   OH226484   1.265   6.589   2.479  0.2225  0.0702  0.3361
 1642TIP3    H126485   1.264   6.596   2.383 -0.8022 -0.5883  0.2778
 1642TIP3    H226486   1.214   6.664   2.509 -1.9663 -1.2589  0.1917
 1643TIP3   OH226487   2.505   3.919   2.781 -0.1281 -0.5414 -0.3146
 1643TIP3    H126488   2.437   3.984   2.801 -1.6169 -1.9326 -0.5628
 1643TIP3    H226489   2.554   3.909   2.862  0.7279  1.4872 -0.5100
 1644TIP3   OH226490   5.681   2.443   1.338  0.6547 -0.2857  0.5972
 1644TIP3    H126491   5.734   2.520   1.319  1.7572 -0.9609  0.8746
 1644TIP3    H226492   5.744   2.375   1.361 -0.3877 -0.3415  3.8420
 1645TIP3   OH226493   2.847   1.274   0.183 -0.1593 -0.9966  0.1755
 1645TIP3    H126494   2.786   1.294   0.112 -0.0471 -1.1881  0.0235
 1645TIP3    H226495   2.914   1.343   0.177  1.0243 -2.2027 -1.2704
 1646TIP3   OH226496   6.716   3.240   8.467 -0.1104  0.5799  0.2110
 1646TIP3    H126497   6.704   3.204   8.379  1.6131  0.3404  0.0488
 1646TIP3    H226498   6.638   3.294   8.481 -0.8068 -0.0212 -1.1308
 1647TIP3   OH226499   5.533   4.350   7.345  0.1289 -0.5469 -0.4010
 1647TIP3    H126500   5.524   4.428   7.398  0.3252 -0.3314 -0.6796
 1647TIP3    H226501   5.477   4.366   7.268 -1.2935 -1.4489  0.3892
 1648TIP3   OH226502   0.582   3.230   1.754  0.1186  0.1326  0.4586
 1648TIP3    H126503   0.644   3.236   1.682 -1.0639  3.3880 -0.4680
 1648TIP3    H226504   0.497   3.249   1.714 -0.5848  1.9491  2.6135
 1649TIP3   OH226505   5.448   3.239   8.903 -0.1827 -0.5773 -0.0820
 1649TIP3    H126506   5.517   3.218   8.841 -0.7318 -0.8393 -0.6147
 1649TIP3    H226507   5.481   3.206   8.987 -0.8919 -3.5358 -0.8141
 1650TIP3   OH226508   1.573   2.059   0.149 -0.1938  0.2309 -1.0969
 1650TIP3    H126509   1.548   2.018   0.066  0.8984 -1.1690 -0.7646
 1650TIP3    H226510   1.506   2.030   0.211  0.5302 -1.0072 -0.8816
 1651TIP3   OH226511   5.103   1.217   0.177 -0.4950  0.2019  0.2507
 1651TIP3    H126512   5.087   1.171   0.260 -0.9772 -1.0840 -0.5266
 1651TIP3    H226513   5.163   1.159   0.129 -0.3779  0.8434 -0.3834
 1652TIP3   OH226514   5.428   2.084   8.804 -0.0975 -0.3717 -0.3050
 1652TIP3    H126515   5.370   2.116   8.873 -0.9240 -1.3531 -0.5302
 1652TIP3    H226516   5.378   2.095   8.723 -0.0631 -1.4171 -0.4774
 1653TIP3   OH226517   5.065   1.752   2.012  0.0130 -0.1602 -0.6327
 1653TIP3    H126518   4.970   1.754   1.998 -0.1639 -0.3642  0.4339
 1653TIP3    H226519   5.100   1.707   1.936 -0.6522  0.7183 -1.4872
 1654TIP3   OH226520   0.725   1.778   0.565  0.0817  0.7526  0.1068
 1654TIP3    H126521   0.664   1.781   0.639  0.3810  0.1837  0.3834
 1654TIP3    H226522   0.802   1.826   0.595  0.0267  0.9100 -0.0025
 1655TIP3   OH226523   0.243   1.291   7.553  0.0124  0.4044  0.6878
 1655TIP3    H126524   0.252   1.364   7.491 -0.7916 -0.4141 -0.4228
 1655TIP3    H226525   0.149   1.282   7.566  0.1625  0.6358  2.1636
 1656TIP3   OH226526   6.007   2.292   8.425  0.9881 -0.2013  0.0619
 1656TIP3    H126527   5.957   2.366   8.458  0.5473  0.0922 -1.2179
 1656TIP3    H226528   6.056   2.327   8.351  1.6640 -0.9304  0.1490
 1657TIP3   OH226529   5.717   2.807   1.097 -0.5517 -0.0398  0.3097
 1657TIP3    H126530   5.706   2.724   1.143 -0.3035  0.8521  2.0198
 1657TIP3    H226531   5.659   2.868   1.142 -0.8784  0.7009 -1.0453
 1658TIP3   OH226532   5.395   2.940   8.750  0.1335 -1.2144  0.2049
 1658TIP3    H126533   5.378   2.993   8.672 -0.3948  1.0040  1.7409
 1658TIP3    H226534   5.491   2.938   8.756  0.2417  1.6036  1.2885
 1659TIP3   OH226535   3.297   1.300   0.741 -0.2265 -0.0148 -0.0910
 1659TIP3    H126536   3.365   1.286   0.675  0.8990 -1.1587  1.2466
 1659TIP3    H226537   3.215   1.293   0.693  0.5700  0.0659 -1.5201
 1660TIP3   OH226538   5.569   1.887   0.706  0.0110 -0.3188 -0.6642
 1660TIP3    H126539   5.589   1.864   0.615  2.2603  1.7885 -0.8076
 1660TIP3    H226540   5.593   1.809   0.755  0.2918 -0.9511 -1.7582
 1661TIP3   OH226541   3.528   4.583   8.627 -0.2632 -0.4041 -0.3118
 1661TIP3    H126542   3.462   4.524   8.590 -2.0499  1.3988 -0.1746
 1661TIP3    H226543   3.562   4.631   8.552 -1.4348  0.8840 -0.0425
 1662TIP3   OH226544   5.258   6.589   0.967 -0.1497 -0.2909 -0.0850
 1662TIP3    H126545   5.179   6.623   0.924  0.2840  0.8748  0.0080
 1662TIP3    H226546   5.301   6.666   1.003 -0.6899 -1.2011  2.8411
 1663TIP3   OH226547   3.455   4.469   7.253  0.5539 -0.1322  0.4464
 1663TIP3    H126548   3.472   4.557   7.217  0.1381 -0.3408 -0.2790
 1663TIP3    H226549   3.534   4.419   7.232  0.3259 -0.2440 -0.1677
 1664TIP3   OH226550   0.264   1.208   3.470  0.4512 -0.0789  0.7799
 1664TIP3    H126551   0.243   1.169   3.556  0.5021 -0.0726  0.7948
 1664TIP3    H226552   0.178   1.226   3.431  0.3667 -2.0652 -0.0840
 1665TIP3   OH226553   0.249   1.775   2.530  0.5104  0.2899 -0.2535
 1665TIP3    H126554   0.277   1.849   2.584  2.2749  0.7066 -1.6589
 1665TIP3    H226555   0.201   1.815   2.457  1.2191  0.0670 -0.8622
 1666TIP3   OH226556   0.741   3.936   7.902  0.1772  0.2853 -0.5852
 1666TIP3    H126557   0.820   3.924   7.954  0.3878 -0.3009 -1.0362
 1666TIP3    H226558   0.672   3.952   7.967  0.5018 -0.0904 -0.1465
 1667TIP3   OH226559   3.266   6.179   3.314  0.5303 -0.2899  0.5396
 1667TIP3    H126560   3.324   6.245   3.353 -0.2919  0.9456 -0.2869
 1667TIP3    H226561   3.320   6.137   3.247  0.7945  0.1423  0.4765
 1668TIP3   OH226562   1.622   2.383   2.184 -0.3968  0.1800 -0.3353
 1668TIP3    H126563   1.631   2.390   2.089  2.1247  3.6727 -0.0348
 1668TIP3    H226564   1.708   2.356   2.215 -0.8226  0.3220  1.0359
 1669TIP3   OH226565   5.453   1.755   0.141 -0.5127  0.3373  0.6841
 1669TIP3    H126566   5.469   1.844   0.174  1.9151  0.0610  0.4238
 1669TIP3    H226567   5.447   1.701   0.220  0.0674  0.4424  0.8050
 1670TIP3   OH226568   0.129   5.589   0.652  0.4507  0.2835 -0.5084
 1670TIP3    H126569   0.186   5.660   0.681  1.2388 -0.5597  0.0829
 1670TIP3    H226570   0.135   5.524   0.722 -0.2057 -0.3832 -1.0577
 1671TIP3   OH226571   5.507   2.957   2.926  0.1069 -0.2422  0.0622
 1671TIP3    H126572   5.483   2.902   2.851  1.9468 -0.2025 -0.6020
 1671TIP3    H226573   5.600   2.941   2.938 -0.1874 -0.4241  2.5400
 1672TIP3   OH226574   2.908   4.725   0.423 -0.1305  0.1017  0.4109
 1672TIP3    H126575   2.815   4.718   0.402  0.0479 -2.4427  0.1239
 1672TIP3    H226576   2.951   4.665   0.363  1.6561  0.7849  0.9272
 1673TIP3   OH226577   3.674   3.719   0.308  0.2955  0.7049  0.1922
 1673TIP3    H126578   3.592   3.760   0.337 -0.3596 -0.3353 -0.1421
 1673TIP3    H226579   3.658   3.625   0.315  0.2814  0.3573 -2.8986
 1674TIP3   OH226580   2.728   3.799   7.552  0.2750  0.3977  0.2305
 1674TIP3    H126581   2.812   3.800   7.505  0.1393 -3.0377 -0.3750
 1674TIP3    H226582   2.753   3.794   7.645  0.6855  0.8832  0.1543
 1675TIP3   OH226583   4.295   1.183   1.164  0.1910  0.0329  0.2750
 1675TIP3    H126584   4.295   1.275   1.191 -0.8179 -0.2400  1.2625
 1675TIP3    H226585   4.290   1.187   1.068  1.6285  0.9975  0.1970
 1676TIP3   OH226586   4.872   3.957   8.918 -0.2592 -0.3526  0.0980
 1676TIP3    H126587   4.862   4.029   8.981  1.5149 -0.5738  0.6732
 1676TIP3    H226588   4.787   3.953   8.874 -0.8795  1.1448  1.0528
 1677TIP3   OH226589   0.745   2.983   0.287  0.3279  0.0454  0.0249
 1677TIP3    H126590   0.791   3.052   0.239 -0.2662  0.1872 -0.3490
 1677TIP3    H226591   0.778   2.901   0.248 -2.1550  0.1635 -2.6240
 1678TIP3   OH226592   5.348   4.050   0.281 -0.1480 -0.6423  0.1600
 1678TIP3    H126593   5.304   3.967   0.300  2.3556 -2.0537  0.3847
 1678TIP3    H226594   5.362   4.049   0.187 -1.2164  0.1541 -0.0162
 1679TIP3   OH226595   1.316   3.945   1.476 -0.1896 -0.5482  0.4070
 1679TIP3    H126596   1.404   3.938   1.436 -0.2005  1.3300 -0.0157
 1679TIP3    H226597   1.263   3.986   1.408 -0.8857  0.2207  1.3966
 1680TIP3   OH226598   6.731   0.625   8.622 -0.1398 -0.1427  0.2494
 1680TIP3    H126599   6.768   0.573   8.551  1.6096 -2.5312  2.7425
 1680TIP3    H226600   6.640   0.595   8.628  0.3160 -1.5787  0.4098
 1681TIP3   OH226601   6.357   5.283   0.947  0.4078 -0.0725 -0.1038
 1681TIP3    H126602   6.271   5.308   0.913  1.3506  2.3462 -0.8661
 1681TIP3    H226603   6.349   5.294   1.042  0.1305  1.0579 -0.2444
 1682TIP3   OH226604   4.533   2.037   2.543  0.1962 -0.1268 -0.3409
 1682TIP3    H126605   4.440   2.031   2.525  0.0769 -0.2881  0.3292
 1682TIP3    H226606   4.556   2.128   2.521 -0.4466  0.3791  1.0010
 1683TIP3   OH226607   0.946   1.381   8.154  0.1585  0.1356 -0.1364
 1683TIP3    H126608   0.862   1.363   8.111  0.2914  0.9394 -0.7537
 1683TIP3    H226609   0.987   1.448   8.100  0.7728  0.4597  0.7117
 1684TIP3   OH226610   5.515   3.423   8.633 -0.2353 -0.0164  0.1233
 1684TIP3    H126611   5.573   3.358   8.673 -0.3318 -0.5086 -0.5144
 1684TIP3    H226612   5.514   3.399   8.540 -1.5331 -0.0669  0.1385
 1685TIP3   OH226613   1.546   6.280   1.088  0.4330  0.6681 -0.4894
 1685TIP3    H126614   1.631   6.238   1.100  0.3534  0.1953 -1.4982
 1685TIP3    H226615   1.519   6.256   0.999 -0.8103  0.7069 -0.1471
 1686TIP3   OH226616   1.417   1.765   2.507 -0.0943  1.0203 -0.2495
 1686TIP3    H126617   1.481   1.701   2.476 -0.2897 -0.1453  1.6135
 1686TIP3    H226618   1.469   1.832   2.552  0.0350  1.7821 -1.4732
 1687TIP3   OH226619   5.668   4.345   1.590  0.4601 -0.1374  0.1932
 1687TIP3    H126620   5.641   4.339   1.682  1.1190  2.3582  0.6234
 1687TIP3    H226621   5.605   4.405   1.551  2.9498  2.8310  0.3207
 1688TIP3   OH226622   1.114   2.440   2.572 -0.0232  0.4042  0.1633
 1688TIP3    H126623   1.140   2.497   2.499  0.6642 -0.9074 -0.6524
 1688TIP3    H226624   1.177   2.460   2.641  1.2974 -0.5357 -0.7173
 1689TIP3   OH226625   6.591   1.471   2.286  0.2815 -0.0079  0.5338
 1689TIP3    H126626   6.520   1.505   2.232  0.7903 -0.0144 -0.1629
 1689TIP3    H226627   6.653   1.544   2.293  0.8661 -0.4304 -0.0592
 1690TIP3   OH226628   4.953   4.954   2.112 -0.1044 -0.0492  0.0642
 1690TIP3    H126629   4.941   4.881   2.050  1.3748 -1.1762  1.0442
 1690TIP3    H226630   5.012   4.919   2.178 -0.1518  1.7569  1.1010
 1691TIP3   OH226631   1.122   1.079   8.159  0.4203 -0.4534  0.7115
 1691TIP3    H126632   1.099   1.091   8.067  2.0838 -3.1420 -0.1825
 1691TIP3    H226633   1.197   1.020   8.157  0.8935 -0.1056  3.8026
 1692TIP3   OH226634   4.995   4.493   2.216 -0.1817 -0.5519 -0.2561
 1692TIP3    H126635   4.996   4.556   2.288 -1.0861 -0.4000 -0.3556
 1692TIP3    H226636   5.059   4.427   2.241 -1.5286 -1.2999  1.4251
 1693TIP3   OH226637   0.710   4.972   2.588 -0.2195  0.3813 -0.5897
 1693TIP3    H126638   0.722   4.920   2.667  0.2516 -0.2436 -1.0612
 1693TIP3    H226639   0.684   5.059   2.620 -0.8091 -0.0721  0.2147
 1694TIP3   OH226640   6.528   3.073   2.726  0.5845 -0.2641 -0.6047
 1694TIP3    H126641   6.580   3.042   2.800  0.0117  0.3155  0.0538
 1694TIP3    H226642   6.592   3.098   2.660  1.0812 -2.5497 -1.0661
 1695TIP3   OH226643   6.589   1.623   1.764  0.3296  0.2456  0.0361
 1695TIP3    H126644   6.664   1.642   1.821 -0.2164  1.3184  0.4250
 1695TIP3    H226645   6.517   1.675   1.801 -0.2188  0.4199 -1.2353
 1696TIP3   OH226646   5.549   2.129   1.967  0.2653 -0.5168 -0.2545
 1696TIP3    H126647   5.517   2.172   1.887  3.0968  1.4286 -0.4810
 1696TIP3    H226648   5.540   2.196   2.035  1.6550 -0.7051  0.1422
 1697TIP3   OH226649   0.254   0.117   2.596 -0.1982  0.3215 -0.6063
 1697TIP3    H126650   0.237   0.151   2.684  0.9246 -0.6073  0.0121
 1697TIP3    H226651   0.348   0.132   2.583 -0.3575  0.4766 -1.6681
 1698TIP3   OH226652   4.264   0.209   8.093 -0.4572 -0.5263  0.2057
 1698TIP3    H126653   4.177   0.204   8.133 -0.5419 -0.7310 -0.0007
 1698TIP3    H226654   4.318   0.152   8.147 -0.5705 -0.7985  0.0367
 1699TIP3   OH226655   1.049   1.059   0.573 -0.1115 -0.3782 -0.2226
 1699TIP3    H126656   1.133   1.106   0.575  0.3165 -0.8967 -2.8767
 1699TIP3    H226657   1.063   0.983   0.629 -0.2004  1.5226  2.6097
 1700TIP3   OH226658   2.483   2.796   0.397 -0.1245 -0.4463 -0.1742
 1700TIP3    H126659   2.486   2.704   0.372 -1.8493  0.2584 -3.5010
 1700TIP3    H226660   2.392   2.810   0.425  0.4333  0.0311  1.5185
 1701TIP3   OH226661   4.801   2.100   1.915 -0.1496  0.2444 -0.0200
 1701TIP3    H126662   4.750   2.033   1.870  0.6431  0.1835 -0.8697
 1701TIP3    H226663   4.873   2.120   1.854  0.8357  0.3126  1.1319
 1702TIP3   OH226664   4.756   0.261   8.020  0.0163  0.3370  0.0364
 1702TIP3    H126665   4.724   0.303   8.099  0.1572  1.1079 -0.3052
 1702TIP3    H226666   4.700   0.185   8.008 -0.1991  0.3905  0.7093
 1703TIP3   OH226667   5.459   3.530   0.154  0.5940 -0.2097  0.0609
 1703TIP3    H126668   5.512   3.462   0.113 -0.0552 -0.0768 -1.0533
 1703TIP3    H226669   5.521   3.599   0.176  1.2681 -1.1741  1.2673
 1704TIP3   OH226670   6.273   5.795   8.000  0.1838 -0.3021 -0.2264
 1704TIP3    H126671   6.310   5.794   7.912  4.6707  2.1347  1.3057
 1704TIP3    H226672   6.299   5.712   8.038  1.8763  0.2668 -0.0517
 1705TIP3   OH226673   4.428   1.143   2.051  0.1371  0.5728 -0.0244
 1705TIP3    H126674   4.438   1.156   1.957  0.5274  1.2636  0.1009
 1705TIP3    H226675   4.372   1.215   2.079 -1.0762 -0.3730  0.0837
 1706TIP3   OH226676   1.510   4.450   8.342 -0.1979 -0.2350 -0.1041
 1706TIP3    H126677   1.574   4.434   8.412 -1.2361 -1.3253  0.6372
 1706TIP3    H226678   1.470   4.535   8.365  1.4615  0.8331 -0.9893
 1707TIP3   OH226679   4.193   6.354   8.830  0.0473 -0.7123 -0.4766
 1707TIP3    H126680   4.143   6.306   8.764 -0.3849 -0.0187 -0.6611
 1707TIP3    H226681   4.276   6.374   8.787 -0.3583  0.0278 -0.9468
 1708TIP3   OH226682   6.642   2.553   0.112 -0.2285  0.6584  0.1029
 1708TIP3    H126683   6.562   2.580   0.067 -0.7417 -0.3558  0.3775
 1708TIP3    H226684   6.665   2.469   0.073 -0.9035 -0.4451  1.9307
 1709TIP3   OH226685   3.172   1.330   8.900  0.3467  0.1388 -0.2881
 1709TIP3    H126686   3.215   1.260   8.850  2.4852  0.2585  1.3027
 1709TIP3    H226687   3.192   1.311   8.991 -3.5075 -0.1041  0.7044
 1710TIP3   OH226688   3.433   1.173   1.545  0.0754 -0.1775 -0.5129
 1710TIP3    H126689   3.406   1.167   1.637  0.1609 -0.2497 -0.4925
 1710TIP3    H226690   3.407   1.261   1.518  2.5962  0.9354  0.3929
 1711TIP3   OH226691   5.788   4.572   1.490 -0.6981 -0.5075 -0.0992
 1711TIP3    H126692   5.871   4.554   1.446 -1.2901 -1.1235 -0.9959
 1711TIP3    H226693   5.764   4.489   1.531  0.1101  0.1862  1.9172
 1712TIP3   OH226694   0.621   4.139   8.780  0.0498  0.4598 -0.2530
 1712TIP3    H126695   0.583   4.112   8.864 -3.1478  0.2176 -1.6522
 1712TIP3    H226696   0.604   4.233   8.775  0.7762  0.5923 -0.4105
 1713TIP3   OH226697   0.098   5.477   8.832  0.3205 -0.0428 -0.5831
 1713TIP3    H126698   0.112   5.410   8.765 -1.1268 -0.9776  0.0009
 1713TIP3    H226699   0.174   5.471   8.889  0.7870 -0.3467 -1.2317
 1714TIP3   OH226700   3.082   2.707   0.692 -0.2603 -0.1701 -0.5148
 1714TIP3    H126701   3.024   2.767   0.646 -1.2295 -0.8878 -0.2787
 1714TIP3    H226702   3.089   2.631   0.634 -0.6086 -0.6192  0.0076
 1715TIP3   OH226703   4.891   6.653   2.284  0.1850 -0.2910 -0.6043
 1715TIP3    H126704   4.960   6.621   2.342 -0.1641  0.9450  0.5603
 1715TIP3    H226705   4.929   6.729   2.241  0.2011 -0.7871 -1.4948
 1716TIP3   OH226706   6.041   3.968   2.949 -0.7169  0.2729 -0.1680
 1716TIP3    H126707   6.127   3.946   2.913 -1.0864 -1.4815 -0.0387
 1716TIP3    H226708   6.044   3.938   3.039 -1.2235  0.8752  0.0547
 1717TIP3   OH226709   1.399   2.971   1.827  0.0524  0.5386  0.7447
 1717TIP3    H126710   1.418   2.883   1.860  1.7069  0.4102 -0.4388
 1717TIP3    H226711   1.474   2.993   1.771  0.0582  3.0043  1.5781
 1718TIP3   OH226712   5.171   0.152   1.057 -0.0804 -0.1240 -0.1932
 1718TIP3    H126713   5.201   0.166   0.967  0.9063 -1.9085 -0.1834
 1718TIP3    H226714   5.116   0.074   1.052  0.3444 -0.4956  0.8313
 1719TIP3   OH226715   0.484   5.911   8.192 -0.2281 -0.4002 -0.4089
 1719TIP3    H126716   0.474   5.995   8.145  1.8736  0.0741 -0.1113
 1719TIP3    H226717   0.489   5.936   8.284 -0.1333 -0.9015 -0.2781
 1720TIP3   OH226718   0.637   6.285   0.936 -0.0665  0.0116 -0.0770
 1720TIP3    H126719   0.653   6.374   0.904 -0.8464  0.1280 -0.1516
 1720TIP3    H226720   0.725   6.247   0.944  0.2566  0.6757 -0.3530
 1721TIP3   OH226721   1.447   1.911   8.172  0.3787  0.1537 -0.4195
 1721TIP3    H126722   1.542   1.900   8.177  0.3464  0.5311  2.3619
 1721TIP3    H226723   1.416   1.895   8.261 -2.0816  0.9536 -1.0530
 1722TIP3   OH226724   3.735   0.749   2.152 -0.2769 -0.1807  0.1134
 1722TIP3    H126725   3.706   0.673   2.102 -1.9855 -0.2054  1.0825
 1722TIP3    H226726   3.751   0.817   2.086 -2.2105 -0.2979 -0.5412
 1723TIP3   OH226727   2.610   4.715   0.704 -0.2372 -0.8806 -0.0094
 1723TIP3    H126728   2.615   4.682   0.793  2.4698  0.3391  0.4029
 1723TIP3    H226729   2.681   4.780   0.698 -1.4509  0.3909 -2.5190
 1724TIP3   OH226730   6.471   3.541   0.555  0.6581 -0.4538 -0.4598
 1724TIP3    H126731   6.422   3.464   0.525  0.5166 -0.5577  0.0293
 1724TIP3    H226732   6.551   3.539   0.502  0.1348 -0.2663 -1.2785
 1725TIP3   OH226733   1.772   6.325   1.410 -0.3502  0.2636  1.0387
 1725TIP3    H126734   1.741   6.235   1.400  0.8439 -0.0247 -0.3741
 1725TIP3    H226735   1.692   6.378   1.409 -0.9660 -0.6306 -0.2631
 1726TIP3   OH226736   3.865   1.773   2.818 -0.1247  0.1523  0.4806
 1726TIP3    H126737   3.840   1.727   2.739  0.9918 -0.7982  0.6663
 1726TIP3    H226738   3.801   1.844   2.826 -0.3281  0.1738 -1.1776
 1727TIP3   OH226739   0.030   3.683   8.001  0.0061 -0.1151 -0.3985
 1727TIP3    H126740   0.011   3.746   7.931 -2.1821 -0.1543  0.0889
 1727TIP3    H226741  -0.052   3.636   8.014  0.5679 -0.6213  1.6936
 1728TIP3   OH226742   4.848   6.359   8.520  0.0448  1.0480 -0.0541
 1728TIP3    H126743   4.928   6.308   8.525 -1.0273 -0.6936  0.0925
 1728TIP3    H226744   4.780   6.296   8.495 -1.1550  2.6119 -0.9607
 1729TIP3   OH226745   4.309   1.189   8.657  0.5947 -0.1549  0.0330
 1729TIP3    H126746   4.290   1.117   8.718 -1.0995  1.9263  2.1839
 1729TIP3    H226747   4.388   1.229   8.692 -0.9598  1.6904  1.6647
 1730TIP3   OH226748   0.526   5.617   0.104 -0.3040  0.2904  0.2102
 1730TIP3    H126749   0.531   5.648   0.194 -1.4332 -0.0049  0.3908
 1730TIP3    H226750   0.618   5.609   0.076  0.0705  2.9876  0.4066
 1731TIP3   OH226751   3.767   5.305   8.768  0.2680  0.2334  0.1088
 1731TIP3    H126752   3.852   5.267   8.790  0.0921 -2.1821 -2.7372
 1731TIP3    H226753   3.703   5.239   8.794 -0.2125 -0.7310 -3.1112
 1732TIP3   OH226754   5.624   6.535   0.170  0.0498  0.2469  0.6291
 1732TIP3    H126755   5.686   6.569   0.235  0.8006  0.2845 -0.0979
 1732TIP3    H226756   5.544   6.586   0.185  0.5269  0.9358  0.8827
 1733TIP3   OH226757   0.090   4.501   1.766 -0.0963  0.4958  0.3170
 1733TIP3    H126758   0.022   4.481   1.831  0.3754  0.9027  0.9489
 1733TIP3    H226759   0.123   4.587   1.792  1.2046 -0.0409  0.4952
 1734TIP3   OH226760   4.936   1.244   1.686 -0.3182 -0.3796 -0.1289
 1734TIP3    H126761   4.932   1.148   1.687  2.5857 -0.6143  1.0016
 1734TIP3    H226762   4.888   1.269   1.607 -1.1577 -2.7487 -0.4697
 1735TIP3   OH226763   6.674   4.395   0.975  0.4060  0.3639 -0.1245
 1735TIP3    H126764   6.726   4.406   1.054 -0.7942 -0.0468  0.7483
 1735TIP3    H226765   6.647   4.484   0.952 -0.4510  0.3467  0.7778
 1736TIP3   OH226766   5.427   4.556   2.545  0.1176 -0.4764  0.1633
 1736TIP3    H126767   5.356   4.492   2.548 -1.1064  0.6792 -1.5674
 1736TIP3    H226768   5.467   4.553   2.631 -2.5666 -0.6367  1.5032
 1737TIP3   OH226769   2.755   5.920   0.042  0.2391 -0.1652 -0.1664
 1737TIP3    H126770   2.764   5.987  -0.025  1.7884 -0.6237 -0.4591
 1737TIP3    H226771   2.669   5.936   0.081 -0.8068 -0.0208 -2.3999
 1738TIP3   OH226772   3.513   0.785   0.076  0.1489  0.3196 -0.5663
 1738TIP3    H126773   3.571   0.713   0.100 -1.3091 -0.8527 -0.3912
 1738TIP3    H226774   3.556   0.826   0.000  1.6431  0.0971  0.1192
 1739TIP3   OH226775   5.302   6.542   7.670 -0.5236 -0.9359  0.4434
 1739TIP3    H126776   5.358   6.565   7.596 -1.7499 -0.9027 -0.5039
 1739TIP3    H226777   5.344   6.585   7.745  1.3470 -1.8595  0.0047
 1740TIP3   OH226778   3.143   1.909   2.078 -0.8507  0.3568  0.1312
 1740TIP3    H126779   3.209   1.870   2.136 -1.0986  0.2482  0.3365
 1740TIP3    H226780   3.155   2.003   2.089  0.7895  0.4028 -1.5095
 1741TIP3   OH226781   2.219   6.030   1.232  0.4346 -0.4300 -0.1061
 1741TIP3    H126782   2.308   6.035   1.268  0.7758 -0.1693 -0.9590
 1741TIP3    H226783   2.211   6.109   1.179 -0.3748 -0.3737  0.0919
 1742TIP3   OH226784   1.543   5.876   1.832  0.2592  0.1126 -0.1587
 1742TIP3    H126785   1.539   5.788   1.796 -4.3681 -0.2115  0.5844
 1742TIP3    H226786   1.624   5.877   1.883  0.5873 -3.6156 -0.3454
 1743TIP3   OH226787   4.590   3.641   2.502  0.1861 -0.2992 -0.5903
 1743TIP3    H126788   4.502   3.671   2.526 -0.6878 -1.5128 -2.1185
 1743TIP3    H226789   4.589   3.637   2.406  1.8067 -0.6744 -0.6236
 1744TIP3   OH226790   2.106   2.266   7.511 -0.3146  0.0706  0.3326
 1744TIP3    H126791   2.158   2.343   7.489 -0.3105 -0.0839 -0.2261
 1744TIP3    H226792   2.167   2.192   7.502 -0.3924 -0.0238  0.5788
 1745TIP3   OH226793   5.121   4.670   1.745  0.4793  0.3976  0.1500
 1745TIP3    H126794   5.170   4.596   1.709  0.2857 -1.0642  2.6704
 1745TIP3    H226795   5.030   4.654   1.720  0.7391  1.2444 -1.5169
 1746TIP3   OH226796   2.953   1.859   0.511 -0.0684 -0.4403  0.3358
 1746TIP3    H126797   2.953   1.902   0.596  0.3216 -0.1804  0.2088
 1746TIP3    H226798   2.898   1.781   0.523 -1.0450  0.2499  0.4847
 1747TIP3   OH226799   5.007   6.207   2.211 -0.2563 -0.0644 -0.0669
 1747TIP3    H126800   4.958   6.277   2.253  2.7395  0.7342  2.4508
 1747TIP3    H226801   5.004   6.134   2.274  1.1988 -0.1991 -0.1173
 1748TIP3   OH226802   5.030   0.207   8.112  0.3619  0.2353 -0.3986
 1748TIP3    H126803   4.937   0.226   8.103 -0.0621 -1.3016  0.4103
 1748TIP3    H226804   5.035   0.112   8.119  1.6083  0.4142  3.1705
 1749TIP3   OH226805   0.651   3.079   7.896 -0.0432  0.4866 -0.1149
 1749TIP3    H126806   0.670   3.112   7.808 -2.3714 -0.6325 -1.1168
 1749TIP3    H226807   0.572   3.125   7.923 -1.0905 -1.3014  0.0813
 1750TIP3   OH226808   6.524   4.094   8.279 -0.6646  0.8447 -0.3321
 1750TIP3    H126809   6.482   4.009   8.262 -2.5967  2.0688 -2.1677
 1750TIP3    H226810   6.603   4.092   8.225 -2.0876  1.1532 -2.5673
 1751TIP3   OH226811   1.325   4.847   8.662  0.1393 -0.0472  0.6407
 1751TIP3    H126812   1.243   4.805   8.689 -0.3150  0.5787  0.2749
 1751TIP3    H226813   1.376   4.853   8.742  0.3381 -1.5362  0.6610
 1752TIP3   OH226814   3.580   0.441   7.745  0.2952  0.0072  0.5198
 1752TIP3    H126815   3.653   0.381   7.732  1.1581  1.0670  0.3065
 1752TIP3    H226816   3.620   0.519   7.783 -0.5405  1.0380 -0.6525
 1753TIP3   OH226817   6.693   0.839   0.951  0.8557 -0.4225  0.5240
 1753TIP3    H126818   6.620   0.809   0.896 -0.8176 -0.5118  2.6747
 1753TIP3    H226819   6.666   0.926   0.981  2.0395 -0.1037  0.7172
 1754TIP3   OH226820   0.988   1.632   1.446 -0.5625 -0.3759 -0.5955
 1754TIP3    H126821   1.077   1.647   1.478 -1.1536 -0.3333  1.1533
 1754TIP3    H226822   0.971   1.706   1.387  0.2261  0.1298 -0.2067
 1755TIP3   OH226823   3.374   3.325   2.656  0.4111  0.2603  0.7144
 1755TIP3    H126824   3.323   3.348   2.733 -0.4497 -2.1189  0.9381
 1755TIP3    H226825   3.358   3.231   2.643  0.4601  0.5607 -2.3874
 1756TIP3   OH226826   0.002   3.989   2.136 -0.2634  0.4072  0.0584
 1756TIP3    H126827  -0.026   3.998   2.045 -1.3906 -1.1919  0.1879
 1756TIP3    H226828   0.063   3.916   2.135 -0.3745  0.3015  0.5921
 1757TIP3   OH226829   5.574   0.078   2.712  0.8024 -0.3187  0.4199
 1757TIP3    H126830   5.645   0.064   2.775  0.5949 -2.6334  0.2312
 1757TIP3    H226831   5.521  -0.002   2.718 -0.3869  0.2932 -1.2340
 1758TIP3   OH226832   4.211   2.043   3.140  0.5093  0.5609  0.0158
 1758TIP3    H126833   4.282   2.097   3.174 -0.6181  1.0338  1.7834
 1758TIP3    H226834   4.193   2.079   3.053  0.5514  2.3129  0.6902
 1759TIP3   OH226835   0.140   3.534   0.350  0.3183  0.3362 -0.0515
 1759TIP3    H126836   0.094   3.584   0.283 -1.1181  0.6045  1.0894
 1759TIP3    H226837   0.142   3.444   0.318 -1.6078  0.1865  0.1409
 1760TIP3   OH226838   1.044   4.075   2.530 -0.5278  0.0327  0.8475
 1760TIP3    H126839   1.092   4.119   2.600  0.4780  0.9510 -0.3607
 1760TIP3    H226840   0.983   4.141   2.498 -1.1072 -0.4408  0.9663
 1761TIP3   OH226841   2.095   3.717   8.906  0.3372 -0.3156  0.5825
 1761TIP3    H126842   2.049   3.767   8.973 -0.0987  0.0108  0.0426
 1761TIP3    H226843   2.029   3.699   8.839  1.0867  0.5491 -0.4134
 1762TIP3   OH226844   5.580   1.765   8.213 -0.0063  0.5881  0.0844
 1762TIP3    H126845   5.514   1.817   8.258  0.2060  1.0188 -0.1038
 1762TIP3    H226846   5.580   1.797   8.123  1.2058  1.3484  0.3192
 1763TIP3   OH226847   5.266   1.741   1.026 -0.0935  0.1880  0.0361
 1763TIP3    H126848   5.261   1.770   0.935  1.6199  1.1019  0.1833
 1763TIP3    H226849   5.245   1.819   1.078 -1.0334 -0.3173  0.4443
 1764TIP3   OH226850   5.207   6.596   8.739 -0.2565 -0.3646 -0.2037
 1764TIP3    H126851   5.144   6.614   8.809 -2.3049 -0.0482 -2.0127
 1764TIP3    H226852   5.228   6.503   8.749 -0.5364 -0.3305  0.7947
 1765TIP3   OH226853   1.631   4.740   0.872  0.2214  0.1157 -0.2695
 1765TIP3    H126854   1.714   4.702   0.901 -0.8811 -2.3647 -0.1472
 1765TIP3    H226855   1.578   4.747   0.951 -0.1564  0.4450 -0.5445
 1766TIP3   OH226856   5.701   5.356   7.743 -0.4461 -0.4955 -0.6564
 1766TIP3    H126857   5.627   5.396   7.696 -2.9793 -2.1486  1.5960
 1766TIP3    H226858   5.729   5.423   7.805 -1.4289 -0.5176 -0.1694
 1767TIP3   OH226859   0.161   6.434   8.153  0.3057  0.2129 -0.0431
 1767TIP3    H126860   0.206   6.366   8.203 -0.5043  0.7099  1.4251
 1767TIP3    H226861   0.095   6.387   8.102  0.5525 -0.2197  0.0354
 1768TIP3   OH226862   0.420   2.907   0.697  0.6249 -0.2758  0.2357
 1768TIP3    H126863   0.399   2.988   0.743  1.2354 -0.9044  1.7264
 1768TIP3    H226864   0.490   2.931   0.636 -0.5505  0.6889 -0.7589
 1769TIP3   OH226865   2.182   1.459   2.019  0.3070 -0.4023 -1.5974
 1769TIP3    H126866   2.206   1.471   2.110 -1.6122  0.4632 -1.1471
 1769TIP3    H226867   2.222   1.376   1.994  2.6897  0.3893 -0.6628
 1770TIP3   OH226868   2.543   1.659   0.795  0.1763 -0.6650  0.4522
 1770TIP3    H126869   2.584   1.602   0.860 -0.6991 -2.7275 -0.7069
 1770TIP3    H226870   2.608   1.728   0.779  0.8999 -0.7773  2.5677
 1771TIP3   OH226871   3.800   3.755   8.559  0.5086  0.4005 -0.1643
 1771TIP3    H126872   3.872   3.719   8.611  0.7600  0.4105 -0.5078
 1771TIP3    H226873   3.809   3.713   8.473  0.2462  0.5789 -0.2793
 1772TIP3   OH226874   5.427   2.616   8.648  0.1615 -0.2787 -0.5724
 1772TIP3    H126875   5.418   2.700   8.692  1.0752 -0.9182  0.9158
 1772TIP3    H226876   5.406   2.634   8.556 -1.3583  1.1959  0.0218
 1773TIP3   OH226877   3.716   5.869   0.090 -0.2606  0.0187 -0.1532
 1773TIP3    H126878   3.696   5.888   0.182  1.1144 -0.3485  0.2430
 1773TIP3    H226879   3.772   5.942   0.063  1.3987 -1.1084  0.0683
 1774TIP3   OH226880   2.748   4.150   8.889 -0.1479  0.2859 -0.3417
 1774TIP3    H126881   2.687   4.204   8.938  0.0820  0.8629 -0.6906
 1774TIP3    H226882   2.833   4.168   8.928 -0.1588 -0.3657  0.0102
 1775TIP3   OH226883   1.310   4.398   2.168  0.1750 -0.1100  0.1815
 1775TIP3    H126884   1.316   4.435   2.080 -0.6549 -1.3567 -0.4326
 1775TIP3    H226885   1.227   4.431   2.203  1.3470  1.8770  1.2648
 1776TIP3   OH226886   6.450   1.026   1.658  0.0335 -0.1243 -0.6734
 1776TIP3    H126887   6.411   1.074   1.731  0.2841 -0.2359 -0.4676
 1776TIP3    H226888   6.442   0.934   1.683  1.5553 -0.1051 -0.0578
 1777TIP3   OH226889   5.695   5.648   0.941  0.2719  0.2964 -0.5606
 1777TIP3    H126890   5.655   5.683   0.861 -2.5584  2.0354  1.4235
 1777TIP3    H226891   5.621   5.623   0.995  1.9312  1.4671  2.4730
 1778TIP3   OH226892   6.599   0.203   8.486 -0.3031  0.3916  0.1202
 1778TIP3    H126893   6.662   0.224   8.417  1.0382  0.9193  1.4338
 1778TIP3    H226894   6.531   0.269   8.478  0.9005  1.7438  0.5529
 1779TIP3   OH226895   3.486   2.722   8.306 -0.9026  0.4417  0.0444
 1779TIP3    H126896   3.409   2.733   8.362 -0.7154  1.3306  0.1499
 1779TIP3    H226897   3.549   2.785   8.341  0.8104 -1.9341  1.5062
 1780TIP3   OH226898   5.995   4.506   0.105  0.2990  0.0440 -0.4150
 1780TIP3    H126899   5.916   4.453   0.113  1.0146 -1.1376 -0.9223
 1780TIP3    H226900   5.992   4.539   0.015  1.3509 -1.6509 -1.1146
 1781TIP3   OH226901   3.915   3.758   7.924  0.3432 -0.4175  0.6801
 1781TIP3    H126902   3.874   3.691   7.870 -1.4466  0.4398  0.8877
 1781TIP3    H226903   3.959   3.710   7.994 -0.6045 -1.3937  0.6258
 1782TIP3   OH226904   4.320   2.077   0.589 -0.4515 -0.2782  0.1708
 1782TIP3    H126905   4.230   2.069   0.620 -1.0915  0.1796 -1.4483
 1782TIP3    H226906   4.311   2.090   0.494  1.3753 -1.5766 -0.2199
 1783TIP3   OH226907   4.067   3.321   2.931 -0.1282  0.5558  0.4218
 1783TIP3    H126908   4.028   3.233   2.928 -2.2136  1.4302 -0.6985
 1783TIP3    H226909   4.078   3.340   3.024 -1.4503 -0.1773  0.7508
 1784TIP3   OH226910   5.909   3.711   7.762 -0.1922 -0.3838 -0.0553
 1784TIP3    H126911   5.938   3.627   7.726  0.7009  0.5171 -1.5903
 1784TIP3    H226912   5.921   3.703   7.856  2.0162 -1.2333 -0.3500
 1785TIP3   OH226913   6.007   0.452   8.437  0.3681  0.5318  0.1714
 1785TIP3    H126914   6.047   0.373   8.399  2.6852  2.1418 -1.0197
 1785TIP3    H226915   6.071   0.521   8.420 -1.0999  2.4938  2.0890
 1786TIP3   OH226916   3.939   1.972   1.395 -0.7875  0.3976  0.4377
 1786TIP3    H126917   3.877   2.043   1.385 -0.3547  0.7553  0.2802
 1786TIP3    H226918   3.989   1.995   1.473 -0.0309  0.7352 -0.1415
 1787TIP3   OH226919   3.281   6.155   1.937  0.0492  0.0126 -0.2312
 1787TIP3    H126920   3.326   6.072   1.922  1.5448  0.9500 -1.2023
 1787TIP3    H226921   3.281   6.166   2.032  1.2490 -0.3753 -0.1701
 1788TIP3   OH226922   5.835   5.388   8.715  0.2183 -0.3638 -0.0507
 1788TIP3    H126923   5.778   5.321   8.679 -0.1810 -0.3270  0.4973
 1788TIP3    H226924   5.801   5.404   8.803  1.4171 -0.7486  0.5097
 1789TIP3   OH226925   4.449   0.513   0.037  0.3150  0.4353  1.0808
 1789TIP3    H126926   4.468   0.440  -0.023  1.8196  1.9671 -0.4174
 1789TIP3    H226927   4.365   0.547   0.007 -0.4771 -0.7343  1.8918
 1790TIP3   OH226928   5.890   0.947   2.686  0.0173 -0.0247  0.1086
 1790TIP3    H126929   5.894   1.023   2.743 -0.3826  0.0428  0.0533
 1790TIP3    H226930   5.868   0.982   2.600  1.2022 -0.0642 -0.2261
 1791TIP3   OH226931   5.732   1.376   1.690 -0.2732  0.6989 -0.0743
 1791TIP3    H126932   5.762   1.463   1.665 -2.1500  1.1894 -0.7383
 1791TIP3    H226933   5.785   1.316   1.637  1.4121  1.3545  0.7720
 1792TIP3   OH226934   3.449   0.056   1.550  0.1502 -0.0724  0.1999
 1792TIP3    H126935   3.484   0.013   1.629 -0.2453 -0.4421  0.1775
 1792TIP3    H226936   3.374   0.002   1.525 -1.4850  1.5911  1.1941
 1793TIP3   OH226937   5.284   0.041   1.410  0.2232  0.0441 -0.1642
 1793TIP3    H126938   5.301   0.111   1.347 -1.5891 -0.2659 -1.0899
 1793TIP3    H226939   5.211   0.074   1.464  0.5651 -0.4102  0.5889
 1794TIP3   OH226940   5.992   5.191   7.656  0.2949 -0.9029 -0.0228
 1794TIP3    H126941   5.931   5.121   7.635  1.5426 -2.1524  0.3900
 1794TIP3    H226942   6.076   5.163   7.618  1.0401 -0.0827  0.9444
 1795TIP3   OH226943   4.008   2.463   7.736  0.1385  0.0085  0.1720
 1795TIP3    H126944   4.014   2.395   7.668 -0.9806 -0.3157  0.3679
 1795TIP3    H226945   4.004   2.545   7.687  2.5206  0.0540 -0.0407
 1796TIP3   OH226946   2.556   6.412   1.394 -0.1662 -0.1759  0.3121
 1796TIP3    H126947   2.619   6.484   1.385 -0.4707  0.1208  0.5327
 1796TIP3    H226948   2.471   6.454   1.385 -0.3450 -0.9115 -2.6142
 1797TIP3   OH226949   6.616   4.856   8.730 -0.4196 -0.0419  0.5366
 1797TIP3    H126950   6.558   4.787   8.762  0.6354 -0.6298  1.2096
 1797TIP3    H226951   6.702   4.814   8.724 -0.2943  0.4159 -1.7635
 1798TIP3   OH226952   4.215   6.676   7.552 -0.3180  0.2542  0.0629
 1798TIP3    H126953   4.279   6.606   7.557 -0.6066 -0.0070  0.1666
 1798TIP3    H226954   4.130   6.632   7.564 -0.5335  0.5540 -0.3205
 1799TIP3   OH226955   1.382   4.539   0.122 -0.0891  0.4314 -0.5161
 1799TIP3    H126956   1.448   4.553   0.190  0.7730  1.8906 -1.5813
 1799TIP3    H226957   1.305   4.509   0.169  0.8358  0.2496  0.9643
 1800TIP3   OH226958   1.692   0.334   7.998 -0.0048  0.1823  0.4478
 1800TIP3    H126959   1.657   0.422   8.012  0.7844  0.2662  2.0164
 1800TIP3    H226960   1.655   0.281   8.068 -1.1690 -0.9849 -0.9791
 1801TIP3   OH226961   4.035   2.064   2.520  0.2820  0.6091  0.1466
 1801TIP3    H126962   4.014   1.994   2.581 -0.1032  0.5894 -0.0088
 1801TIP3    H226963   3.978   2.137   2.546 -0.6175  0.2792 -0.8048
 1802TIP3   OH226964   2.555   6.338   0.593  0.3141 -0.0084  0.2687
 1802TIP3    H126965   2.483   6.381   0.548  0.9119 -1.3042 -2.0868
 1802TIP3    H226966   2.515   6.297   0.670 -1.3876 -0.3354 -0.7483
 1803TIP3   OH226967   5.509   1.577   2.382 -0.5219 -0.5073  0.1857
 1803TIP3    H126968   5.573   1.554   2.449  1.1743  0.1010 -1.1413
 1803TIP3    H226969   5.529   1.668   2.359 -2.3343 -0.0626  0.2031
 1804TIP3   OH226970   4.821   4.999   0.386  0.0226  0.0710  0.4335
 1804TIP3    H126971   4.778   5.084   0.388 -3.0662 -1.3751  1.7309
 1804TIP3    H226972   4.778   4.951   0.315  3.7595  0.3795 -2.3635
 1805TIP3   OH226973   5.475   1.981   2.725  0.1023 -0.6625 -0.0308
 1805TIP3    H126974   5.538   1.961   2.655  0.2721 -1.0630  0.2300
 1805TIP3    H226975   5.526   2.033   2.788 -1.1759  3.8430 -2.3151
 1806TIP3   OH226976   6.603   1.727   0.086 -0.0759 -0.1343 -0.3290
 1806TIP3    H126977   6.687   1.770   0.076  0.2357 -1.0269 -1.8180
 1806TIP3    H226978   6.616   1.664   0.157  0.3170  0.1454 -0.1512
 1807TIP3   OH226979   6.093   2.250   8.780 -0.1719 -0.5295  0.3247
 1807TIP3    H126980   6.063   2.338   8.756  0.4493 -0.6149 -0.8639
 1807TIP3    H226981   6.030   2.191   8.738  1.0842 -0.6886 -1.4356
 1808TIP3   OH226982   1.811   5.360   2.043 -0.1125  0.0370 -0.4253
 1808TIP3    H126983   1.846   5.436   1.997 -2.1680  1.1924 -0.1941
 1808TIP3    H226984   1.810   5.386   2.136  0.3481 -0.7700 -0.1853
 1809TIP3   OH226985   1.100   4.736   8.705  0.1345 -0.3782  0.3477
 1809TIP3    H126986   1.033   4.795   8.670  0.8090 -0.3956 -1.0659
 1809TIP3    H226987   1.052   4.672   8.757 -1.0432 -0.7997 -1.1928
 1810TIP3   OH226988   2.400   2.629   8.233 -0.0332  0.3336 -0.1229
 1810TIP3    H126989   2.341   2.697   8.266  0.4452  0.6210  0.1689
 1810TIP3    H226990   2.370   2.611   8.144  0.3450  1.5529 -0.5228
 1811TIP3   OH226991   1.840   2.161   1.975 -0.2763 -0.2166 -0.6343
 1811TIP3    H126992   1.894   2.088   2.007 -0.5230 -0.4773 -0.8097
 1811TIP3    H226993   1.891   2.239   1.996 -0.6682 -0.3455  0.8709
 1812TIP3   OH226994   2.128   0.596   0.285 -0.5983 -0.1856 -0.1652
 1812TIP3    H126995   2.109   0.687   0.265 -0.9303 -0.6819 -2.3843
 1812TIP3    H226996   2.100   0.548   0.207  0.6473 -2.0626  0.4703
 1813TIP3   OH226997   6.070   1.743   2.517  0.9282 -0.1045 -0.1275
 1813TIP3    H126998   6.078   1.807   2.446  1.0134 -1.1007 -1.0619
 1813TIP3    H226999   6.093   1.791   2.596 -0.5607  1.4176 -0.5704
 1814TIP3   OH227000   2.791   3.030   8.611 -0.6462  0.2726  0.2602
 1814TIP3    H127001   2.719   2.970   8.592  0.6139 -1.3174  0.2057
 1814TIP3    H227002   2.792   3.090   8.536 -1.7213  0.1454  0.1234
 1815TIP3   OH227003   1.724   2.113   2.729  0.6661  0.2202  0.2747
 1815TIP3    H127004   1.740   2.165   2.650  2.5375 -0.2435  0.3199
 1815TIP3    H227005   1.662   2.166   2.780  1.1360  1.5620 -0.4919
 1816TIP3   OH227006   4.855   3.006   8.223 -0.0467 -0.0981  0.0344
 1816TIP3    H127007   4.785   2.999   8.158  0.6998  0.0262 -0.8096
 1816TIP3    H227008   4.929   2.961   8.183  0.5087  0.2141  0.6906
 1817TIP3   OH227009   6.583   5.093   7.593 -0.0542 -0.7443  0.3991
 1817TIP3    H127010   6.657   5.075   7.535 -1.1398 -2.4984 -0.5413
 1817TIP3    H227011   6.533   5.161   7.548 -1.0045 -2.2453 -0.9130
 1818TIP3   OH227012   5.417   4.144   7.483  0.1634  0.1714 -0.3088
 1818TIP3    H127013   5.480   4.209   7.450  0.1961  0.0694 -0.4440
 1818TIP3    H227014   5.345   4.196   7.517 -0.9077  0.2313 -2.5477
 1819TIP3   OH227015   0.259   6.258   8.364 -0.2820  0.3713 -0.0923
 1819TIP3    H127016   0.286   6.222   8.448  0.2685  1.9161  0.4248
 1819TIP3    H227017   0.301   6.202   8.298  0.8122  0.2756  0.6741
 1820TIP3   OH227018   2.186   4.234   2.541  0.0863  0.4742 -0.3539
 1820TIP3    H127019   2.238   4.284   2.477 -0.6132  1.2050 -0.3706
 1820TIP3    H227020   2.145   4.301   2.596 -1.3374 -0.0286 -0.7409
 1821TIP3   OH227021   0.174   3.605   8.793 -0.1566  0.5063  0.3461
 1821TIP3    H127022   0.234   3.656   8.737 -0.1384  0.5887  0.4410
 1821TIP3    H227023   0.228   3.534   8.827 -0.3740 -0.0297 -0.4025
 1822TIP3   OH227024   4.915   1.748   3.421  0.7048  0.4477 -0.4866
 1822TIP3    H127025   4.882   1.701   3.345  0.7855  1.1300 -0.9633
 1822TIP3    H227026   4.926   1.682   3.488 -1.4541  0.1651 -0.3456
 1823TIP3   OH227027   6.079   5.253   1.024  0.4294  0.4433  0.2481
 1823TIP3    H127028   6.054   5.286   1.110 -0.0440  1.3964 -0.2335
 1823TIP3    H227029   6.036   5.313   0.962  1.2574  0.1461 -0.6441
 1824TIP3   OH227030   0.091   2.973   7.382  0.1612  0.0111 -0.0365
 1824TIP3    H127031   0.072   3.051   7.435 -1.9727 -0.5328  0.1279
 1824TIP3    H227032   0.185   2.962   7.388  0.3380  1.7190  1.1617
 1825TIP3   OH227033   3.262   1.689   8.692 -0.7350  0.1281 -0.3895
 1825TIP3    H127034   3.241   1.731   8.775  1.7693 -1.7235  1.3494
 1825TIP3    H227035   3.329   1.745   8.653 -2.2144  1.2262 -1.4519
 1826TIP3   OH227036   1.220   2.551   8.001  0.1673 -0.5915  0.0116
 1826TIP3    H127037   1.251   2.580   8.086  1.5489 -2.2768  0.1535
 1826TIP3    H227038   1.224   2.455   8.006 -0.0355 -0.7287 -1.8262
 1827TIP3   OH227039   6.244   4.680   8.546 -0.0509 -0.1256 -0.6670
 1827TIP3    H127040   6.331   4.641   8.547  1.1002  2.2152  0.1950
 1827TIP3    H227041   6.251   4.753   8.483 -0.9487  0.9086  0.3788
 1828TIP3   OH227042   1.338   5.284   1.909  0.1808 -0.7472  0.6726
 1828TIP3    H127043   1.297   5.336   1.841  1.1225  0.8860  1.2952
 1828TIP3    H227044   1.432   5.293   1.893  0.3976 -0.8066  1.8370
 1829TIP3   OH227045   3.043   3.029   0.368  0.8640 -0.0421 -0.0120
 1829TIP3    H127046   3.025   3.121   0.349 -0.3693  0.2293  2.1524
 1829TIP3    H227047   3.113   3.005   0.306 -0.2467  1.7035 -2.0794
 1830TIP3   OH227048   1.623   4.558   1.923  0.2406 -0.4608 -0.0158
 1830TIP3    H127049   1.663   4.637   1.958 -0.7659 -0.7112  1.8585
 1830TIP3    H227050   1.529   4.572   1.934  0.0386 -1.8019  0.1009
 1831TIP3   OH227051   1.688   4.241   2.766  0.1063  0.7864  0.0123
 1831TIP3    H127052   1.646   4.287   2.840 -2.4289 -0.1513 -0.7179
 1831TIP3    H227053   1.780   4.233   2.791 -0.1913  2.6124  1.9721
 1832TIP3   OH227054   0.232   2.522   2.938 -0.4019 -0.1949  0.1595
 1832TIP3    H127055   0.178   2.509   3.017 -0.8265  0.0330 -0.0938
 1832TIP3    H227056   0.319   2.492   2.965 -0.1831  1.2618  1.1879
 1833TIP3   OH227057   0.164   6.394   1.833  0.0089  0.1815  0.4152
 1833TIP3    H127058   0.210   6.332   1.889  3.0899 -0.0848 -2.1263
 1833TIP3    H227059   0.089   6.345   1.798  0.6472 -1.1054  0.8094
 1834TIP3   OH227060   2.219   2.908   2.024  0.4101  0.1307  0.0822
 1834TIP3    H127061   2.312   2.930   2.024  0.1690  1.2194  0.6105
 1834TIP3    H227062   2.177   2.979   1.977  0.1234 -1.9915 -3.2456
 1835TIP3   OH227063   4.546   0.360   7.407  0.4303  0.5534  0.2562
 1835TIP3    H127064   4.593   0.437   7.439 -0.0831  1.1195 -0.3232
 1835TIP3    H227065   4.593   0.286   7.445  0.9483  1.1478  0.8029
 1836TIP3   OH227066   4.709   2.789   0.781  0.6749 -0.9156  0.4784
 1836TIP3    H127067   4.699   2.802   0.687 -2.2115 -1.3344  0.6211
 1836TIP3    H227068   4.729   2.696   0.791  0.5816 -0.9565  0.2913
 1837TIP3   OH227069   2.780   6.191   2.494  0.1674 -0.1055 -0.2399
 1837TIP3    H127070   2.777   6.253   2.566 -0.7460 -0.4712  0.0598
 1837TIP3    H227071   2.765   6.106   2.535 -2.6779 -0.1010 -1.0685
 1838TIP3   OH227072   3.631   6.507   0.048  0.5660  0.3949  0.0584
 1838TIP3    H127073   3.663   6.556  -0.028 -1.1911  1.1267 -0.2582
 1838TIP3    H227074   3.539   6.533   0.056  0.1208 -1.3736  1.0985
 1839TIP3   OH227075   1.930   6.052   0.891  0.5840  0.3957 -0.7615
 1839TIP3    H127076   1.969   6.046   0.804  1.7364  1.1280 -0.3258
 1839TIP3    H227077   1.858   5.990   0.889  1.9141 -1.2207 -1.5595
 1840TIP3   OH227078   4.714   3.800   1.696  0.1364 -0.0777 -0.4858
 1840TIP3    H127079   4.759   3.872   1.739  0.2379 -0.2856 -0.2426
 1840TIP3    H227080   4.705   3.733   1.764 -1.3433  0.3041 -0.2809
 1841TIP3   OH227081   4.761   5.729   1.723 -0.5705 -0.3465 -0.0582
 1841TIP3    H127082   4.727   5.776   1.647 -1.8275 -1.3282 -0.1468
 1841TIP3    H227083   4.751   5.636   1.700  1.0664 -0.6688  0.4454
 1842TIP3   OH227084   4.993   0.522   2.792 -0.3703 -0.0744 -0.3559
 1842TIP3    H127085   5.000   0.548   2.884  2.3441  2.1702 -1.0556
 1842TIP3    H227086   4.911   0.561   2.762  0.0095  1.5040  0.5202
 1843TIP3   OH227087   6.647   5.760   3.350  0.4763 -0.1641 -0.6685
 1843TIP3    H127088   6.715   5.696   3.326  0.5979  0.1442 -1.1661
 1843TIP3    H227089   6.610   5.726   3.431  1.1308 -0.4092 -0.4664
 1844TIP3   OH227090   2.348   1.292   7.569  0.0308  0.1103  0.4830
 1844TIP3    H127091   2.294   1.282   7.490  1.2951  1.4118 -0.6217
 1844TIP3    H227092   2.432   1.254   7.545  0.6536  1.1635  0.9339
 1845TIP3   OH227093   2.799   0.549   8.801 -0.0439  0.1661 -0.0588
 1845TIP3    H127094   2.749   0.537   8.720  0.4710  0.3397 -0.4054
 1845TIP3    H227095   2.753   0.619   8.848 -1.9346 -1.6806  1.0763
 1846TIP3   OH227096   0.668   6.185   0.641  0.3606 -0.4465 -0.5956
 1846TIP3    H127097   0.662   6.194   0.736  1.1459 -1.2892 -0.4527
 1846TIP3    H227098   0.757   6.212   0.620  0.1113 -0.0107 -1.1382
 1847TIP3   OH227099   5.902   3.605   0.199 -0.9309  0.4552  0.4610
 1847TIP3    H127100   5.913   3.510   0.199 -1.0301  0.4439  0.0917
 1847TIP3    H227101   5.983   3.639   0.239  0.7790  0.4178 -2.6913
 1848TIP3   OH227102   1.239   3.685   2.271  0.1041 -0.0401 -0.5963
 1848TIP3    H127103   1.230   3.684   2.176  1.8502 -0.6324 -0.7996
 1848TIP3    H227104   1.202   3.769   2.298 -2.4438 -0.7725 -1.5172
 1849TIP3   OH227105   3.674   5.590   0.265  0.1485 -0.2662  0.2243
 1849TIP3    H127106   3.689   5.599   0.360 -1.5773  0.6024  0.4572
 1849TIP3    H227107   3.602   5.650   0.247 -0.2284 -1.1832 -1.4763
 1850TIP3   OH227108   5.558   5.305   1.868 -0.7332  0.3587  0.3676
 1850TIP3    H127109   5.637   5.352   1.894 -0.0023  0.5915 -2.0039
 1850TIP3    H227110   5.490   5.373   1.865 -0.1587  0.9130 -1.0301
 1851TIP3   OH227111   3.475   0.536   8.041  0.3798 -0.3109  0.4555
 1851TIP3    H127112   3.508   0.461   7.992  0.8307 -0.3117  0.7585
 1851TIP3    H227113   3.543   0.603   8.033 -0.4023  0.3985 -0.5688
 1852TIP3   OH227114   3.670   3.443   2.624  0.8430 -0.1496 -0.1688
 1852TIP3    H127115   3.692   3.476   2.711  1.7631  0.0151 -0.4559
 1852TIP3    H227116   3.574   3.441   2.623  0.8010 -1.5658  1.3700
 1853TIP3   OH227117   4.496   6.251   8.264 -0.0513  0.3936 -0.5504
 1853TIP3    H127118   4.423   6.190   8.251 -0.1599  0.7373 -1.6299
 1853TIP3    H227119   4.542   6.216   8.341 -0.2091 -0.9675 -1.0369
 1854TIP3   OH227120   1.342   5.229   1.087  0.7597  0.5824  0.0165
 1854TIP3    H127121   1.309   5.202   1.172  0.6060 -1.4303 -0.6383
 1854TIP3    H227122   1.283   5.299   1.059 -0.3565 -0.0649  0.7146
 1855TIP3   OH227123   3.704   1.579   8.414  0.1831 -0.4886  0.6943
 1855TIP3    H127124   3.645   1.506   8.396 -0.2950  0.0928 -0.2069
 1855TIP3    H227125   3.767   1.545   8.477 -0.1011 -1.6312  0.3819
 1856TIP3   OH227126   0.235   1.128   1.794 -0.4736 -0.4409 -0.1132
 1856TIP3    H127127   0.293   1.103   1.865  0.1356  1.0475 -0.0455
 1856TIP3    H227128   0.279   1.097   1.715 -0.1375 -0.3147  0.0210
 1857TIP3   OH227129   1.877   2.354   2.307  0.3182  0.2395  0.2218
 1857TIP3    H127130   1.953   2.395   2.266 -0.5550 -0.4658 -2.3418
 1857TIP3    H227131   1.914   2.291   2.369  2.1511 -2.6557 -3.4064
 1858TIP3   OH227132   5.227   5.091   7.871 -0.5819  0.3501  0.5545
 1858TIP3    H127133   5.252   5.144   7.946 -1.1913  0.6846  0.5270
 1858TIP3    H227134   5.237   5.001   7.901  1.1932  0.4520  0.3559
 1859TIP3   OH227135   5.079   3.746   1.699  0.3707 -0.3374  0.1238
 1859TIP3    H127136   5.005   3.787   1.655  0.8917  0.6276  0.1058
 1859TIP3    H227137   5.041   3.702   1.775 -0.2032  0.3744  0.2676
 1860TIP3   OH227138   3.783   6.426   0.358  0.8377  0.5807  0.2518
 1860TIP3    H127139   3.757   6.513   0.328  0.7480  1.0510  1.6026
 1860TIP3    H227140   3.704   6.391   0.400  0.8734 -0.1702 -0.2831
 1861TIP3   OH227141   0.122   6.764   1.169  0.2492  0.1235  0.1859
 1861TIP3    H127142   0.032   6.797   1.167 -0.1871 -0.8947  1.5575
 1861TIP3    H227143   0.173   6.833   1.211 -0.3497 -0.2169  1.5261
 1862TIP3   OH227144   6.231   3.101   8.599 -0.1391  0.8575 -0.3273
 1862TIP3    H127145   6.314   3.091   8.554  0.3156 -2.7168  0.9423
 1862TIP3    H227146   6.254   3.135   8.686  0.0676 -0.1962  0.0480
 1863TIP3   OH227147   5.183   5.364   1.977 -0.4114 -0.0331 -0.0781
 1863TIP3    H127148   5.197   5.435   2.039 -1.8824 -0.3021  0.6290
 1863TIP3    H227149   5.154   5.291   2.032 -3.0148  0.1014 -1.1372
 1864TIP3   OH227150   4.445   3.925   3.280 -0.0493  0.0179  0.0712
 1864TIP3    H127151   4.433   4.009   3.325 -2.2600 -0.3025  0.1654
 1864TIP3    H227152   4.441   3.859   3.349  1.5920 -0.2321 -0.0154
 1865TIP3   OH227153   3.609   2.302   1.566 -0.1371 -0.2903  0.2023
 1865TIP3    H127154   3.603   2.377   1.507  0.8042 -0.1643  0.2411
 1865TIP3    H227155   3.624   2.227   1.507 -1.0562 -0.4548  0.1646
 1866TIP3   OH227156   5.003   1.758   3.089  0.4416 -0.4101 -0.3953
 1866TIP3    H127157   5.045   1.839   3.114 -0.3244  0.0426 -0.5416
 1866TIP3    H227158   4.914   1.765   3.124  0.4287 -1.2766 -0.2248
 1867TIP3   OH227159   1.352   5.954   0.215  0.2252 -0.3984 -0.4081
 1867TIP3    H127160   1.390   5.890   0.155  0.1927 -1.2813  0.4861
 1867TIP3    H227161   1.385   5.928   0.301 -1.5444 -0.5513  0.2609
 1868TIP3   OH227162   4.221   0.874   2.947 -0.0269  0.3131 -0.1761
 1868TIP3    H127163   4.270   0.842   3.023  0.7513  2.0733  0.1238
 1868TIP3    H227164   4.289   0.908   2.889 -0.7336  0.4202 -0.9493
 1869TIP3   OH227165   0.035   3.671   0.139  0.4244  0.2918  0.2350
 1869TIP3    H127166   0.082   3.660   0.056 -0.5370 -0.7049 -0.1936
 1869TIP3    H227167   0.053   3.761   0.165 -0.1376  0.9674 -1.6099
 1870TIP3   OH227168   1.324   3.857   8.459  0.4084 -0.2979  0.0369
 1870TIP3    H127169   1.239   3.873   8.419  0.1653  0.5113  0.8349
 1870TIP3    H227170   1.380   3.927   8.426  1.0498 -1.3386 -1.2031
 1871TIP3   OH227171   3.487   6.103   2.284 -0.6129 -0.4563 -0.9022
 1871TIP3    H127172   3.416   6.070   2.230 -1.2382  0.0537 -0.4195
 1871TIP3    H227173   3.458   6.191   2.310  0.4945  0.0204 -1.2442
 1872TIP3   OH227174   3.962   4.744   2.605 -0.2436  0.0758 -0.2981
 1872TIP3    H127175   3.986   4.683   2.534 -1.7636 -1.0925  0.1346
 1872TIP3    H227176   3.951   4.688   2.682 -1.8765  0.8553  0.0749
 1873TIP3   OH227177   3.633   6.505   8.184 -0.3923  0.7502 -0.1836
 1873TIP3    H127178   3.704   6.528   8.125 -0.5338 -0.1550 -0.7180
 1873TIP3    H227179   3.565   6.469   8.127 -0.3135 -0.6616  0.5769
 1874TIP3   OH227180   2.968   3.100   2.122  0.5426 -0.0436  0.1749
 1874TIP3    H127181   2.941   3.163   2.056  2.0255 -1.1550 -1.5966
 1874TIP3    H227182   2.892   3.044   2.135  0.1564  0.3221 -0.4610
 1875TIP3   OH227183   4.640   0.810   3.357  0.5351 -0.1711  0.1706
 1875TIP3    H127184   4.681   0.787   3.441  1.6721 -0.8613 -0.5492
 1875TIP3    H227185   4.705   0.785   3.291 -0.9405 -0.9990 -1.0158
 1876TIP3   OH227186   3.291   4.620   2.674 -0.1872 -0.2129  0.1664
 1876TIP3    H127187   3.345   4.568   2.733 -0.3931 -0.8194 -0.1675
 1876TIP3    H227188   3.337   4.617   2.590  0.4834  1.2515  0.4575
 1877TIP3   OH227189   4.095   5.346   2.806  0.3655 -0.1650  0.2303
 1877TIP3    H127190   4.125   5.371   2.893  1.8232 -0.0018 -0.2919
 1877TIP3    H227191   4.034   5.416   2.781 -0.2919 -0.3693  1.2188
 1878TIP3   OH227192   4.730   6.530   2.101 -0.2416 -0.4710  0.5124
 1878TIP3    H127193   4.793   6.580   2.153  0.1207  1.3464 -1.5456
 1878TIP3    H227194   4.651   6.584   2.100  0.0937  0.0410 -1.5960
 1879TIP3   OH227195   5.928   2.215   8.046 -0.9303  0.3244  0.3497
 1879TIP3    H127196   5.854   2.155   8.056 -0.4223 -0.0850  1.9284
 1879TIP3    H227197   5.906   2.267   7.968 -1.9513 -1.0732 -0.3359
 1880TIP3   OH227198   2.737   3.004   1.010  0.7275  0.0155  0.2064
 1880TIP3    H127199   2.784   2.921   0.999  0.2923  0.1258 -3.7591
 1880TIP3    H227200   2.802   3.072   0.995  0.3637  0.3136 -0.0515
 1881TIP3   OH227201   0.655   1.609   7.964 -0.1244  0.1852  0.0197
 1881TIP3    H127202   0.563   1.589   7.947  0.2702 -0.0097 -2.0950
 1881TIP3    H227203   0.691   1.527   7.999 -0.9725  0.6062  2.0060
 1882TIP3   OH227204   6.006   1.599   1.961 -0.2940 -0.0717  0.2594
 1882TIP3    H127205   6.020   1.508   1.935  0.7812  0.1157  0.1418
 1882TIP3    H227206   5.919   1.599   2.001 -0.4400 -1.0854 -0.0265
 1883TIP3   OH227207   3.548   5.324   1.345  0.1318 -0.0000  0.0211
 1883TIP3    H127208   3.456   5.306   1.366  0.0246  0.6799  0.1537
 1883TIP3    H227209   3.597   5.254   1.388 -0.2510  0.1576  0.7117
 1884TIP3   OH227210   2.873   2.684   8.059 -0.2217  0.3040  0.7750
 1884TIP3    H127211   2.799   2.671   8.119 -0.2569 -0.7393  0.5252
 1884TIP3    H227212   2.833   2.687   7.972 -0.0686  0.7894  0.7200
 1885TIP3   OH227213   3.028   1.049   3.010 -0.9542 -0.2549  0.2354
 1885TIP3    H127214   3.011   0.961   3.044  0.9796 -1.1581 -0.9882
 1885TIP3    H227215   3.091   1.087   3.071 -0.3311 -0.4532 -0.2813
 1886TIP3   OH227216   1.807   1.721   0.304  0.1992  0.3031  0.8094
 1886TIP3    H127217   1.840   1.801   0.263 -1.1662  0.5084  0.0762
 1886TIP3    H227218   1.727   1.747   0.348 -1.0343 -0.8819 -0.5913
 1887TIP3   OH227219   3.038   4.266   1.368  0.4859 -0.2757  0.4565
 1887TIP3    H127220   3.084   4.197   1.322  1.5960 -0.0354  1.1749
 1887TIP3    H227221   3.046   4.343   1.312  2.0944  0.0938  1.1512
 1888TIP3   OH227222   6.194   0.614   8.334 -0.0283  0.0338 -0.1616
 1888TIP3    H127223   6.228   0.701   8.353  2.6288 -1.0116  0.4548
 1888TIP3    H227224   6.253   0.580   8.266 -1.9443 -0.7636 -1.4944
 1889TIP3   OH227225   4.684   3.133   1.405  0.1575  0.0216  0.3682
 1889TIP3    H127226   4.621   3.203   1.389 -0.0428 -0.4483 -1.0112
 1889TIP3    H227227   4.769   3.173   1.388  0.0346 -0.1033 -0.5424
 1890TIP3   OH227228   3.689   6.370   2.605  0.7622  0.4006  0.0281
 1890TIP3    H127229   3.630   6.420   2.662  4.4220  1.1928  3.5788
 1890TIP3    H227230   3.668   6.279   2.623 -0.0488  0.6529  0.4406
 1891TIP3   OH227231   5.934   5.413   1.892  0.1532 -0.2463 -0.1312
 1891TIP3    H127232   6.025   5.393   1.915 -0.4520 -2.1859  0.7799
 1891TIP3    H227233   5.885   5.335   1.917 -1.5389  0.0472 -2.2412
 1892TIP3   OH227234   2.884   1.753   2.794 -0.1462 -0.6579  0.2526
 1892TIP3    H127235   2.980   1.762   2.794 -0.1353 -0.7665 -0.0552
 1892TIP3    H227236   2.853   1.830   2.841  0.1711 -1.4363  1.8435
 1893TIP3   OH227237   2.079   0.414   1.481  0.2756 -0.5117  0.5375
 1893TIP3    H127238   1.999   0.434   1.529 -0.3019 -0.3747 -0.4357
 1893TIP3    H227239   2.106   0.328   1.512  0.4938  0.0082  1.8270
 1894TIP3   OH227240   6.667   0.444   0.746  0.0250  0.3388  0.8835
 1894TIP3    H127241   6.731   0.496   0.794 -0.2172  1.2298  0.2525
 1894TIP3    H227242   6.597   0.505   0.724 -0.2287 -0.2240  0.0668
 1895TIP3   OH227243   1.407   5.083   8.012 -0.2182 -0.0334 -0.0488
 1895TIP3    H127244   1.443   5.146   8.074 -1.3863  0.5479  0.0572
 1895TIP3    H227245   1.417   4.998   8.056  0.7703  0.1330  0.0786
 1896TIP3   OH227246   1.649   0.971   1.779  0.5359  0.5477 -0.3661
 1896TIP3    H127247   1.571   1.027   1.777 -0.5007 -0.7836  0.6237
 1896TIP3    H227248   1.675   0.970   1.871 -0.2772 -1.6037 -0.1125
 1897TIP3   OH227249   3.681   0.692   2.414 -0.2442  0.3771  0.4382
 1897TIP3    H127250   3.669   0.702   2.320 -1.1546  1.1781  0.6176
 1897TIP3    H227251   3.768   0.728   2.431  0.3232 -0.6472 -0.2103
 1898TIP3   OH227252   2.720   6.694   2.265 -0.2761  0.6114  0.3333
 1898TIP3    H127253   2.689   6.678   2.355 -0.0981  0.3178  0.3459
 1898TIP3    H227254   2.805   6.738   2.276  0.2245 -0.3222  0.3294
 1899TIP3   OH227255   4.603   1.838   8.357 -0.5989 -0.0543 -0.1109
 1899TIP3    H127256   4.588   1.897   8.431 -1.7631 -2.1671  1.4524
 1899TIP3    H227257   4.662   1.771   8.392 -2.0745 -1.7345 -0.6748
 1900TIP3   OH227258   1.922   5.712   1.457 -0.1801  0.5516  0.3491
 1900TIP3    H127259   1.949   5.620   1.455  0.8367  0.8368 -1.2473
 1900TIP3    H227260   1.979   5.753   1.522  1.0761  0.4914 -0.6638
 1901TIP3   OH227261   6.431   5.691   2.186 -0.1010  0.2209  0.3916
 1901TIP3    H127262   6.441   5.781   2.155  0.9816 -0.2948 -0.8322
 1901TIP3    H227263   6.485   5.687   2.265  2.1693 -0.0461 -1.0716
 1902TIP3   OH227264   4.708   0.417   0.416  0.4504 -0.5486 -0.1251
 1902TIP3    H127265   4.635   0.431   0.355  1.5479  0.0717 -1.3566
 1902TIP3    H227266   4.671   0.435   0.502 -0.4392  1.5299 -0.8771
 1903TIP3   OH227267   6.365   4.944   7.660 -0.7265  0.2888 -0.2437
 1903TIP3    H127268   6.452   4.976   7.635 -0.3954  0.5201  1.1389
 1903TIP3    H227269   6.362   4.854   7.628 -0.0612  0.3464 -0.4790
 1904TIP3   OH227270   5.133   1.997   8.880 -0.0426 -0.3398  0.4665
 1904TIP3    H127271   5.080   2.076   8.879  0.0342 -0.2898 -0.1955
 1904TIP3    H227272   5.134   1.969   8.971 -2.3483 -1.0906  0.3328
 1905TIP3   OH227273   1.667   3.133   8.129 -0.1229 -0.0282  0.2810
 1905TIP3    H127274   1.718   3.093   8.199 -0.2789 -1.3746 -0.3568
 1905TIP3    H227275   1.597   3.070   8.111  0.2015  0.0475 -1.4222
 1906TIP3   OH227276   4.452   2.320   1.786 -0.1773 -0.4324 -0.1717
 1906TIP3    H127277   4.402   2.239   1.776  1.4947 -1.7122  1.2781
 1906TIP3    H227278   4.514   2.301   1.856  1.5937  1.4568 -1.1549
 1907TIP3   OH227279   2.838   2.971   0.043 -0.1213  0.1375  0.1024
 1907TIP3    H127280   2.791   2.963   0.126 -1.0646  0.1100 -0.4129
 1907TIP3    H227281   2.908   2.907   0.048 -1.7650 -1.7850 -0.1518
 1908TIP3   OH227282   4.213   2.984   1.299  0.5420  0.5410  0.2585
 1908TIP3    H127283   4.226   2.921   1.370 -0.0897 -0.1268 -0.1947
 1908TIP3    H227284   4.236   2.936   1.219 -2.4635 -0.0684 -0.3801
 1909TIP3   OH227285   0.481   3.496   2.472  0.1184  0.2819  0.1523
 1909TIP3    H127286   0.542   3.536   2.534 -0.4857  0.9934  0.3126
 1909TIP3    H227287   0.439   3.571   2.429 -1.0599 -0.1751  0.4696
 1910TIP3   OH227288   6.102   3.595   1.368  0.1816  0.0257 -0.9159
 1910TIP3    H127289   6.058   3.659   1.312 -1.3001  1.1278  1.3567
 1910TIP3    H227290   6.079   3.510   1.330 -1.2046  0.7123 -1.6820
 1911TIP3   OH227291   6.327   4.692   0.332 -0.0448  0.2053  0.0113
 1911TIP3    H127292   6.367   4.618   0.379  1.5851  1.6437  1.0017
 1911TIP3    H227293   6.272   4.735   0.397 -1.2801 -0.3022 -0.6622
 1912TIP3   OH227294   5.747   1.442   0.389  0.1914 -0.5174 -0.4064
 1912TIP3    H127295   5.756   1.493   0.309 -2.3389  1.8838  0.7169
 1912TIP3    H227296   5.697   1.365   0.362 -1.5958  0.7888 -1.0097
 1913TIP3   OH227297   2.942   1.416   8.053 -0.0839  0.0480  1.1990
 1913TIP3    H127298   2.935   1.448   7.963 -0.2718 -1.6958  0.5678
 1913TIP3    H227299   2.872   1.462   8.100 -0.8980 -0.0757  0.1350
 1914TIP3   OH227300   1.935   2.639   2.627  0.3619 -0.4446  0.0466
 1914TIP3    H127301   1.881   2.649   2.549 -0.6197  0.0386  0.7548
 1914TIP3    H227302   1.926   2.547   2.652  0.9099 -0.6679 -0.5569
 1915TIP3   OH227303   2.004   4.648   1.311  0.5447 -0.4563  0.3123
 1915TIP3    H127304   1.982   4.555   1.304 -0.5309 -0.1509 -0.7169
 1915TIP3    H227305   1.920   4.693   1.297  0.5380  0.6308  3.2189
 1916TIP3   OH227306   0.913   5.130   7.831 -0.6131 -0.1503 -0.0182
 1916TIP3    H127307   0.861   5.203   7.798  0.4055  0.8908  0.6321
 1916TIP3    H227308   0.964   5.101   7.756  1.4015  1.9537  0.4461
 1917TIP3   OH227309   4.901   1.536   3.606  0.0562 -0.2026  0.3191
 1917TIP3    H127310   4.831   1.474   3.630  1.7711 -1.5223  2.1710
 1917TIP3    H227311   4.971   1.480   3.571  0.2592  1.0968 -1.4817
 1918TIP3   OH227312   1.402   3.321   8.514 -0.1622  0.4254  0.0844
 1918TIP3    H127313   1.383   3.265   8.439  0.3018 -0.0769  0.3380
 1918TIP3    H227314   1.324   3.377   8.522 -0.7754 -0.3879  0.0192
 1919TIP3   OH227315   3.849   3.900   0.472  0.2356 -0.0079  0.0949
 1919TIP3    H127316   3.786   3.887   0.543 -0.5906  0.6910 -0.4919
 1919TIP3    H227317   3.839   3.822   0.417 -0.4416  0.2979 -0.2275
 1920TIP3   OH227318   2.113   1.424   8.785  0.1362  0.7032 -0.0550
 1920TIP3    H127319   2.122   1.416   8.691  1.1131  2.3647 -0.1467
 1920TIP3    H227320   2.039   1.484   8.797  0.2588  0.8002  0.2227
 1921TIP3   OH227321   5.886   3.889   8.865 -0.3427 -0.0763  0.1257
 1921TIP3    H127322   5.804   3.929   8.893  0.3911  0.3637  1.7761
 1921TIP3    H227323   5.952   3.925   8.925  0.6217 -2.4634  0.6397
 1922TIP3   OH227324   3.685   3.294   2.078  0.0675 -0.1902  0.5405
 1922TIP3    H127325   3.687   3.363   2.145  0.6828 -0.5639  0.9225
 1922TIP3    H227326   3.595   3.293   2.047 -0.3436 -0.2915  1.6697
 1923TIP3   OH227327   4.794   5.412   7.693  0.5009 -0.1140 -0.8588
 1923TIP3    H127328   4.882   5.422   7.658  0.6621 -0.6464 -0.6154
 1923TIP3    H227329   4.791   5.472   7.768  1.7440 -2.3482  1.1304
 1924TIP3   OH227330   1.980   4.638   0.200 -0.0880 -0.4208 -0.7332
 1924TIP3    H127331   2.074   4.650   0.205 -0.1715 -0.3290  1.5158
 1924TIP3    H227332   1.959   4.578   0.272 -1.9132  0.7490 -0.2133
 1925TIP3   OH227333   4.309   2.945   0.947  0.2879  0.2197 -0.0949
 1925TIP3    H127334   4.270   3.028   0.922 -0.4170 -0.2604 -0.6491
 1925TIP3    H227335   4.403   2.959   0.940  0.1889  1.1472  0.4209
 1926TIP3   OH227336   6.299   3.016   2.067 -0.0330 -0.0880 -0.4778
 1926TIP3    H127337   6.351   2.982   1.995 -0.2840  2.0595 -1.7547
 1926TIP3    H227338   6.305   3.111   2.059 -3.2446  0.2596 -0.0525
 1927TIP3   OH227339   0.801   1.446   1.476  0.1164 -0.1613 -0.0279
 1927TIP3    H127340   0.862   1.517   1.495 -0.4402  0.1782  0.5296
 1927TIP3    H227341   0.851   1.366   1.489  0.0398  0.0799  1.9243
 1928TIP3   OH227342   0.429   1.912   7.961  0.0591 -0.1132 -0.0173
 1928TIP3    H127343   0.343   1.890   7.925 -0.4784 -0.4413  1.3884
 1928TIP3    H227344   0.418   2.001   7.996  0.8087  0.5258 -1.3521
 1929TIP3   OH227345   0.006   2.794   3.421 -0.6093  0.1801 -0.0389
 1929TIP3    H127346  -0.059   2.836   3.477 -0.2018  0.7769 -0.0062
 1929TIP3    H227347  -0.003   2.701   3.441 -1.6730  0.2140 -0.2735
 1930TIP3   OH227348   3.189   0.242   8.242  0.2043  0.5277  0.0146
 1930TIP3    H127349   3.207   0.157   8.283  0.9045  1.4286  1.7091
 1930TIP3    H227350   3.098   0.261   8.264 -0.0525  0.0949 -0.6403
 1931TIP3   OH227351   1.873   5.507   2.376  0.6991  0.3736  0.2514
 1931TIP3    H127352   1.918   5.591   2.382 -0.5738  1.0568  0.6377
 1931TIP3    H227353   1.857   5.481   2.467 -1.6073  1.2543  0.1584
 1932TIP3   OH227354   3.488   2.439   8.328  0.3288 -0.2307 -0.0339
 1932TIP3    H127355   3.540   2.396   8.260 -1.2800 -1.5646 -0.4610
 1932TIP3    H227356   3.492   2.532   8.306  0.7038 -0.5424 -1.3287
 1933TIP3   OH227357   1.399   6.521   7.243 -0.0572 -0.3103  0.2107
 1933TIP3    H127358   1.429   6.558   7.326  1.6378 -1.4737  0.1594
 1933TIP3    H227359   1.453   6.563   7.176 -0.8008 -0.0291 -0.2231
 1934TIP3   OH227360   5.601   6.049   0.607  0.5114  0.4670 -0.5366
 1934TIP3    H127361   5.578   6.140   0.625  3.5590  1.3306 -0.5453
 1934TIP3    H227362   5.672   6.029   0.669  2.4934 -0.6300 -2.9803
 1935TIP3   OH227363   4.305   0.447   1.702  0.2010 -0.1696 -0.2170
 1935TIP3    H127364   4.349   0.526   1.732 -1.2114  0.1041  1.2484
 1935TIP3    H227365   4.359   0.375   1.734  1.0804  0.1721 -0.8947
 1936TIP3   OH227366   5.007   6.258   8.773 -0.1235 -0.3613 -0.1183
 1936TIP3    H127367   5.011   6.231   8.681  0.6217  0.4168 -0.3324
 1936TIP3    H227368   5.071   6.203   8.818  0.8197  0.4624 -0.4098
 1937TIP3   OH227369   0.260   4.811   8.004  0.6263  0.4784 -0.5924
 1937TIP3    H127370   0.322   4.867   8.051  2.1945 -0.2915 -1.6723
 1937TIP3    H227371   0.174   4.846   8.029  1.5025  2.7447 -0.4389
 1938TIP3   OH227372   4.659   6.446   0.284 -0.0404  0.6186  0.2516
 1938TIP3    H127373   4.573   6.426   0.246 -0.1227  0.3662  0.5651
 1938TIP3    H227374   4.722   6.423   0.216 -0.1155 -0.9587  0.6765
 1939TIP3   OH227375   3.900   3.055   1.625 -0.3292 -0.8074  0.4562
 1939TIP3    H127376   3.904   3.142   1.586  3.0187 -0.0514  2.1192
 1939TIP3    H227377   3.939   2.997   1.559 -2.4212 -1.0992 -0.5894
 1940TIP3   OH227378   2.553   4.138   1.608  0.2373  0.3731  0.1701
 1940TIP3    H127379   2.584   4.208   1.665  1.5627  0.9182 -1.1512
 1940TIP3    H227380   2.599   4.059   1.639 -1.5903 -0.0657  1.9409
 1941TIP3   OH227381   2.869   0.952   2.592  0.3040  0.2147  0.1083
 1941TIP3    H127382   2.864   1.025   2.653  0.6432 -0.2617  0.7295
 1941TIP3    H227383   2.848   0.875   2.645 -1.4807 -0.0099 -0.8459
 1942TIP3   OH227384   3.933   3.441   7.292 -0.0910  0.2577  0.7286
 1942TIP3    H127385   4.010   3.385   7.286 -0.3123  0.0787 -1.3570
 1942TIP3    H227386   3.863   3.383   7.320 -0.3694 -0.6882 -1.6279
 1943TIP3   OH227387   5.121   5.063   8.365 -0.2317  0.0257 -0.4094
 1943TIP3    H127388   5.053   5.000   8.345  0.0119 -0.4202  0.1438
 1943TIP3    H227389   5.181   5.058   8.291  0.2718 -1.0714  0.0527
 1944TIP3   OH227390   1.056   3.907   8.401  0.5989 -0.3561  0.4360
 1944TIP3    H127391   1.074   3.997   8.371 -0.5901  0.1170  1.0576
 1944TIP3    H227392   0.961   3.903   8.407  0.6803 -1.4164  1.1832
 1945TIP3   OH227393   2.716   2.081   7.406 -0.3289 -0.1941 -0.2672
 1945TIP3    H127394   2.719   2.176   7.393  1.7523  0.1877  2.0552
 1945TIP3    H227395   2.626   2.062   7.430 -0.7146  1.2417 -0.5184
 1946TIP3   OH227396   4.648   3.247   0.814 -0.2940  0.0953  0.0169
 1946TIP3    H127397   4.590   3.264   0.740  2.6299  0.3511 -2.3853
 1946TIP3    H227398   4.633   3.321   0.874 -1.3756  0.9289 -1.2304
 1947TIP3   OH227399   2.747   1.721   8.379 -0.1819 -0.8397 -0.1883
 1947TIP3    H127400   2.732   1.777   8.455  2.0850 -1.5538  0.8555
 1947TIP3    H227401   2.758   1.782   8.306 -0.2635 -0.0575  0.4482
 1948TIP3   OH227402   4.038   2.854   0.872 -0.3436 -0.6304 -0.0153
 1948TIP3    H127403   4.134   2.852   0.869 -0.3400 -1.3558  0.3212
 1948TIP3    H227404   4.018   2.922   0.936 -0.0602 -0.2928 -0.2811
 1949TIP3   OH227405   0.949   2.652   0.521  0.0197 -0.1858 -0.4051
 1949TIP3    H127406   0.924   2.700   0.442  0.4620 -0.0996 -0.4910
 1949TIP3    H227407   1.007   2.711   0.568  0.1643 -0.4392 -0.2635
 1950TIP3   OH227408   3.098   1.416   0.458  0.6119 -0.0144  0.4278
 1950TIP3    H127409   3.043   1.339   0.474  0.2971  0.4626  1.7170
 1950TIP3    H227410   3.122   1.447   0.545  0.7833  1.3193 -0.0731
 1951TIP3   OH227411   2.698   3.989   1.360  0.0425  0.4087 -0.5122
 1951TIP3    H127412   2.726   4.054   1.424  0.2505  0.1842 -0.3726
 1951TIP3    H227413   2.630   3.939   1.405 -0.5721  0.9387 -0.8428
 1952TIP3   OH227414   4.383   0.955   0.614 -0.3819 -0.6104  0.2196
 1952TIP3    H127415   4.329   1.026   0.651  3.2380  1.1381  2.7775
 1952TIP3    H227416   4.404   0.985   0.526 -0.7715  0.4115  0.4509
 1953TIP3   OH227417   0.335   2.504   2.390 -0.6022  0.1334 -0.3447
 1953TIP3    H127418   0.288   2.421   2.399  1.7594 -1.4674 -1.8017
 1953TIP3    H227419   0.394   2.506   2.466 -1.2238  0.9231  0.1346
 1954TIP3   OH227420   5.397   6.280   0.388  0.1679  0.2741 -0.0965
 1954TIP3    H127421   5.472   6.245   0.436 -0.9898 -0.6252  1.0945
 1954TIP3    H227422   5.377   6.363   0.431  1.1984  1.1332 -1.1914
 1955TIP3   OH227423   5.298   4.056   1.063 -0.2940 -0.3768  0.4229
 1955TIP3    H127424   5.329   3.977   1.020  0.9983  0.1346  0.3547
 1955TIP3    H227425   5.378   4.104   1.085 -1.0015  0.2828  1.6605
 1956TIP3   OH227426   6.513   6.613   0.147 -0.0591  0.0006  0.1758
 1956TIP3    H127427   6.591   6.559   0.160  1.4074  2.0037  0.2783
 1956TIP3    H227428   6.456   6.590   0.220  0.3841 -1.5793  0.0556
 1957TIP3   OH227429   1.184   3.811   7.407  0.0588  0.2536  0.3478
 1957TIP3    H127430   1.171   3.832   7.314  0.7172 -0.3406  0.1134
 1957TIP3    H227431   1.097   3.783   7.437  0.3069 -1.9111 -0.7333
 1958TIP3   OH227432   2.511   3.440   1.828  0.2780 -0.1932  0.4795
 1958TIP3    H127433   2.537   3.348   1.823  1.5729  0.1927 -0.3668
 1958TIP3    H227434   2.554   3.481   1.753 -0.4393  1.0668  0.7353
 1959TIP3   OH227435   3.738   6.592   3.236  0.1931 -0.3512 -0.1386
 1959TIP3    H127436   3.775   6.592   3.324  0.3091 -0.9160 -0.1837
 1959TIP3    H227437   3.648   6.622   3.248  0.3921  0.1763  0.0871
 1960TIP3   OH227438   1.592   0.852   1.512  0.1143  0.0386 -0.6283
 1960TIP3    H127439   1.687   0.856   1.495  0.3125  1.0455  0.5630
 1960TIP3    H227440   1.577   0.919   1.578 -1.8729  1.9162 -2.7784
 1961TIP3   OH227441   4.395   0.930   1.233 -0.0033 -0.2222  0.5872
 1961TIP3    H127442   4.359   1.017   1.214 -1.8988 -0.8388  1.1500
 1961TIP3    H227443   4.429   0.937   1.322 -1.2314 -0.3389  1.0900
 1962TIP3   OH227444   1.628   4.600   0.283 -0.0298 -0.1172 -0.4697
 1962TIP3    H127445   1.693   4.658   0.322 -0.3666 -0.2907  0.3807
 1962TIP3    H227446   1.657   4.512   0.307  0.1288 -0.2645 -1.2003
 1963TIP3   OH227447   3.440   4.522   8.114  0.1316 -0.0808  0.0018
 1963TIP3    H127448   3.535   4.530   8.105 -0.0669  3.7841 -0.0280
 1963TIP3    H227449   3.428   4.445   8.169  3.2382 -0.7853 -0.1105
 1964TIP3   OH227450   2.744   0.380   8.286 -0.0404 -0.3729 -0.4901
 1964TIP3    H127451   2.776   0.442   8.352  0.3672  0.0073 -1.0278
 1964TIP3    H227452   2.804   0.306   8.291 -0.4433 -0.6645  0.0579
 1965TIP3   OH227453   5.178   3.456   0.172 -0.1960  0.2310 -0.2994
 1965TIP3    H127454   5.273   3.450   0.170 -0.0999  1.4607 -1.1814
 1965TIP3    H227455   5.154   3.482   0.083 -1.1096  2.4735  0.5149
 1966TIP3   OH227456   4.381   4.482   8.805 -0.0832 -0.1483 -0.3009
 1966TIP3    H127457   4.324   4.532   8.747 -1.0028  0.7274  1.2975
 1966TIP3    H227458   4.401   4.541   8.877 -0.2825 -1.6868  1.0886
 1967TIP3   OH227459   6.055   2.614   8.396  1.0927  0.4528  0.6746
 1967TIP3    H127460   6.019   2.662   8.471 -0.9146 -0.8207  0.6089
 1967TIP3    H227461   5.979   2.596   8.341  2.0268 -1.3457 -0.0990
 1968TIP3   OH227462   1.298   0.721   0.474  0.2185  0.0074  0.5845
 1968TIP3    H127463   1.240   0.654   0.438  0.8201 -0.7525  1.0026
 1968TIP3    H227464   1.321   0.776   0.399  1.0562 -1.2579 -0.1336
 1969TIP3   OH227465   3.465   2.066   2.371 -0.0131  0.4252 -0.1963
 1969TIP3    H127466   3.409   2.097   2.300  1.0758  0.3679 -1.0946
 1969TIP3    H227467   3.499   2.146   2.411 -0.8173  0.4654  0.4509
 1970TIP3   OH227468   1.254   2.207   8.372 -0.7173  0.1173  0.1688
 1970TIP3    H127469   1.261   2.160   8.455 -1.1593 -1.5992 -0.7234
 1970TIP3    H227470   1.192   2.155   8.320 -0.4053  1.1165 -1.2607
 1971TIP3   OH227471   2.965   6.714   0.100  0.3607 -0.2043  0.5843
 1971TIP3    H127472   2.938   6.630   0.138 -0.5560 -0.9551 -1.5652
 1971TIP3    H227473   2.971   6.773   0.175  0.4856 -2.0207  2.1007
 1972TIP3   OH227474   6.329   4.201   8.808 -0.1146 -0.1300 -0.6556
 1972TIP3    H127475   6.314   4.118   8.762  1.7947 -1.2963  0.6878
 1972TIP3    H227476   6.283   4.191   8.891 -2.5465  1.5042 -1.6631
 1973TIP3   OH227477   4.619   3.358   2.784 -0.4751 -0.0138 -0.4919
 1973TIP3    H127478   4.564   3.375   2.708 -0.1081 -0.6237 -0.9049
 1973TIP3    H227479   4.578   3.284   2.829 -1.6155  1.3770  0.8464
 1974TIP3   OH227480   5.957   3.152   8.835 -0.1973 -0.2276 -0.3890
 1974TIP3    H127481   5.927   3.114   8.918  0.0364  2.0569  0.8393
 1974TIP3    H227482   6.050   3.170   8.850 -0.3845  1.1172 -0.7474
 1975TIP3   OH227483   0.485   2.796   8.289 -0.2540  0.6088  0.5836
 1975TIP3    H127484   0.472   2.857   8.362 -1.6084  0.1862  0.7237
 1975TIP3    H227485   0.532   2.723   8.327  0.3111  1.0245  0.6961
 1976TIP3   OH227486   3.002   1.512   2.167  0.1113  0.5491  0.1303
 1976TIP3    H127487   2.917   1.468   2.167  0.5708 -0.3806  0.6399
 1976TIP3    H227488   3.062   1.447   2.129  0.7944  0.7641  0.8304
 1977TIP3   OH227489   4.203   2.016   8.525 -0.1007 -1.0164  0.1405
 1977TIP3    H127490   4.237   2.035   8.438  1.3099  1.1134  1.0508
 1977TIP3    H227491   4.158   2.096   8.551  1.1820 -0.8515  2.0705
 1978TIP3   OH227492   2.733   6.595   7.487 -0.0244  0.2962 -0.1855
 1978TIP3    H127493   2.788   6.536   7.437  0.3503  1.9410 -1.8642
 1978TIP3    H227494   2.794   6.654   7.532 -0.3027  1.9125 -1.7868
 1979TIP3   OH227495   6.243   0.851   8.725  0.4688 -0.3163  0.3337
 1979TIP3    H127496   6.298   0.849   8.647 -0.4112 -0.8470 -0.2927
 1979TIP3    H227497   6.213   0.942   8.731  1.8905  0.1282  1.0427
 1980TIP3   OH227498   0.364   6.032   1.270  0.3803  0.3881  0.7316
 1980TIP3    H127499   0.451   6.071   1.261  0.3407  0.2685 -0.3237
 1980TIP3    H227500   0.316   6.065   1.194  0.2788 -1.5143 -0.0766
 1981TIP3   OH227501   6.295   2.094   2.596 -0.1823 -0.2650 -0.1078
 1981TIP3    H127502   6.313   2.050   2.680  1.2119  0.5667  0.0512
 1981TIP3    H227503   6.379   2.133   2.571 -1.1812  1.6117 -0.6562
 1982TIP3   OH227504   2.674   4.582   1.989 -0.7953  0.3022 -1.0308
 1982TIP3    H127505   2.762   4.613   1.971 -0.9794  0.7089 -1.2387
 1982TIP3    H227506   2.643   4.546   1.905 -0.0563 -1.7952 -0.4750
 1983TIP3   OH227507   6.510   4.573   8.537 -0.2555 -0.4716  0.2032
 1983TIP3    H127508   6.586   4.567   8.480 -0.0643  0.2277  0.3780
 1983TIP3    H227509   6.523   4.504   8.602  0.9254  0.4934  1.0438
 1984TIP3   OH227510   0.958   1.181   8.361 -0.3915  0.1186 -0.1779
 1984TIP3    H127511   1.030   1.124   8.335  1.2168  1.0893  1.9088
 1984TIP3    H227512   0.950   1.244   8.289  1.3422  0.4012 -0.1731
 1985TIP3   OH227513   0.309   3.981   7.423 -0.0542  0.5265  0.0821
 1985TIP3    H127514   0.292   3.951   7.334 -1.2904 -0.7287  0.7056
 1985TIP3    H227515   0.245   4.050   7.438 -1.6911 -1.0682  0.8525
 1986TIP3   OH227516   6.571   6.401   0.441  0.3566 -0.1932 -0.3984
 1986TIP3    H127517   6.649   6.435   0.484  1.0302 -0.3538 -1.4518
 1986TIP3    H227518   6.533   6.340   0.504  1.4146 -0.5553 -0.0938
 1987TIP3   OH227519   1.024   6.533   1.885 -0.1688 -0.4907 -0.2890
 1987TIP3    H127520   0.981   6.559   1.803 -0.4610  0.7194  0.2247
 1987TIP3    H227521   1.111   6.573   1.880 -0.6482  0.7252  0.5404
 1988TIP3   OH227522   6.581   2.504   2.285  0.0787 -0.3739  0.4154
 1988TIP3    H127523   6.664   2.551   2.279 -1.0634  1.7580  0.3160
 1988TIP3    H227524   6.552   2.520   2.375 -0.1444 -1.3065  0.5217
 1989TIP3   OH227525   6.217   5.023   1.000 -0.3708 -0.2928 -0.0839
 1989TIP3    H127526   6.185   5.113   1.003  0.2959 -0.0775  1.4764
 1989TIP3    H227527   6.308   5.031   0.971 -0.0004 -0.3402  1.0053
 1990TIP3   OH227528   0.525   0.453   2.347  0.7161  0.0869 -0.1017
 1990TIP3    H127529   0.597   0.465   2.408  1.4061 -0.8446 -0.6982
 1990TIP3    H227530   0.453   0.418   2.401  1.2834 -0.6294  0.2055
 1991TIP3   OH227531   6.405   0.791   8.454  0.6114  0.1252  0.2919
 1991TIP3    H127532   6.466   0.784   8.381  1.1932 -2.0906  0.9174
 1991TIP3    H227533   6.360   0.874   8.440  0.0878 -0.5763 -3.0760
 1992TIP3   OH227534   4.728   5.623   8.296 -0.3107 -0.1208 -0.1636
 1992TIP3    H127535   4.803   5.637   8.238 -0.7971  0.3066 -0.6975
 1992TIP3    H227536   4.753   5.547   8.349  0.6234  0.2045 -0.1231
 1993TIP3   OH227537   5.612   0.852   7.633 -0.0900  0.5606 -0.1695
 1993TIP3    H127538   5.614   0.947   7.638 -0.1561  0.4960  1.4390
 1993TIP3    H227539   5.535   0.833   7.579  1.6001  1.4211 -3.1483
 1994TIP3   OH227540   5.138   4.645   8.164 -0.6525  0.0581  0.4356
 1994TIP3    H127541   5.206   4.579   8.174 -0.9555 -0.3760 -0.3053
 1994TIP3    H227542   5.061   4.597   8.135 -1.0472  0.6591  0.4540
 1995TIP3   OH227543   0.660   3.587   0.620 -0.6686 -0.3815 -0.5830
 1995TIP3    H127544   0.587   3.586   0.558 -2.8011  1.2211  1.7150
 1995TIP3    H227545   0.707   3.669   0.601 -1.1106 -0.0655 -0.3231
 1996TIP3   OH227546   5.212   0.915   0.570  0.2192  0.2970 -0.2422
 1996TIP3    H127547   5.257   0.864   0.502 -0.0400  0.1867 -0.3324
 1996TIP3    H227548   5.145   0.965   0.523 -0.6804 -0.5940  0.0550
 1997TIP3   OH227549   6.656   2.417   0.596 -0.0733  0.3690 -0.3924
 1997TIP3    H127550   6.688   2.376   0.677  0.6203 -0.1782 -0.9260
 1997TIP3    H227551   6.598   2.487   0.626 -1.1180 -0.8454  0.5588
 1998TIP3   OH227552   5.680   2.063   8.052 -0.0814 -0.1186 -0.2428
 1998TIP3    H127553   5.665   1.971   8.028 -0.2604 -0.8529  2.3544
 1998TIP3    H227554   5.664   2.066   8.147  0.8747  2.4075 -0.0805
 1999TIP3   OH227555   0.284   2.703   0.329 -0.5854 -0.4148  0.0034
 1999TIP3    H127556   0.243   2.701   0.416 -1.0627 -0.6884 -0.2224
 1999TIP3    H227557   0.264   2.617   0.292  1.7473 -1.2784  0.5797
 2000TIP3   OH227558   0.779   2.796   1.201 -0.3966  0.8160  0.3869
 2000TIP3    H127559   0.793   2.711   1.157 -3.3650 -0.4188  1.5907
 2000TIP3    H227560   0.774   2.774   1.294 -2.4606  2.0950  0.6216
 2001TIP3   OH227561   4.077   1.114   3.054  0.3965 -0.3530  0.1813
 2001TIP3    H127562   4.022   1.157   2.988  3.1147  0.9745 -1.4115
 2001TIP3    H227563   4.073   1.172   3.130 -1.2529 -0.8741  0.5143
 2002TIP3   OH227564   0.161   6.562   0.293 -0.6529  0.5957 -0.1717
 2002TIP3    H127565   0.234   6.502   0.310  0.1830  2.6117  5.9223
 2002TIP3    H227566   0.092   6.506   0.258  1.1173 -3.3817  1.9762
 2003TIP3   OH227567   2.446   6.394   7.809  0.3245 -0.1925  0.3907
 2003TIP3    H127568   2.401   6.459   7.756  2.0198  1.1491  0.4775
 2003TIP3    H227569   2.381   6.326   7.826 -1.6528  1.6558  0.6120
 2004TIP3   OH227570   1.879   6.003   1.316 -0.1490  0.6138  0.0200
 2004TIP3    H127571   1.866   5.969   1.227 -4.0914 -1.4220  1.1109
 2004TIP3    H227572   1.936   5.939   1.358 -0.7230 -0.1105 -0.2696
 2005TIP3   OH227573   2.531   0.081   2.816 -0.3851  0.1755 -1.1408
 2005TIP3    H127574   2.442   0.057   2.790 -1.4469  0.4079  1.8136
 2005TIP3    H227575   2.525   0.173   2.842  0.5208 -0.0140 -0.1922
 2006TIP3   OH227576   1.085   5.714   1.631  0.0505  0.0029 -0.1589
 2006TIP3    H127577   0.994   5.726   1.658  0.0416  0.2575 -0.2998
 2006TIP3    H227578   1.117   5.802   1.614 -0.4718 -0.2106 -2.6489
 2007TIP3   OH227579   0.092   2.507   0.461  0.4892 -0.2561  0.2756
 2007TIP3    H127580   0.156   2.538   0.525  1.2317 -1.4140  0.1328
 2007TIP3    H227581   0.024   2.465   0.513  0.4273 -0.0445  0.3674
 2008TIP3   OH227582   3.126   2.579   0.946  0.1223 -0.2317  0.3185
 2008TIP3    H127583   3.098   2.670   0.941 -0.7650 -0.4461  1.0629
 2008TIP3    H227584   3.183   2.566   0.870 -0.5448  0.6639 -0.3418
 2009TIP3   OH227585   0.391   2.683   3.429  0.0429  0.0835 -0.2779
 2009TIP3    H127586   0.349   2.760   3.468 -1.4849  0.7023 -2.9027
 2009TIP3    H227587   0.339   2.609   3.462 -0.0053  0.3999  0.3698
 2010TIP3   OH227588   0.389   1.705   8.175  0.4045  0.0373 -0.0048
 2010TIP3    H127589   0.378   1.776   8.113  1.0092 -0.7947 -1.1010
 2010TIP3    H227590   0.482   1.707   8.199  0.9275 -1.6238 -1.6615
 2011TIP3   OH227591   0.932   3.145   0.143  0.0031 -0.2408 -0.0455
 2011TIP3    H127592   0.935   3.093   0.062 -1.5951 -1.3369  0.5515
 2011TIP3    H227593   1.023   3.151   0.170  0.5160 -0.3130 -1.6440
 2012TIP3   OH227594   2.273   4.445   0.517  0.2971  0.3596  0.3711
 2012TIP3    H127595   2.331   4.378   0.553  0.5092  0.5537  0.3913
 2012TIP3    H227596   2.314   4.528   0.540  0.2572  0.4926 -0.0195
 2013TIP3   OH227597   6.372   5.948   0.165 -0.3209 -0.1922 -0.0194
 2013TIP3    H127598   6.324   6.013   0.216  0.7290  1.8741 -1.4920
 2013TIP3    H227599   6.417   5.999   0.098  1.0980 -2.4038 -0.8702
 2014TIP3   OH227600   5.306   2.670   8.414 -0.3183  0.2887 -0.7467
 2014TIP3    H127601   5.248   2.642   8.343  0.1095  0.1701 -1.0543
 2014TIP3    H227602   5.277   2.758   8.435 -0.0863  0.5496 -1.4695
 2015TIP3   OH227603   1.032   3.319   8.494 -0.0565  0.7400  0.3706
 2015TIP3    H127604   1.077   3.235   8.500 -0.4474  0.4913 -0.0433
 2015TIP3    H227605   0.988   3.329   8.579 -2.0580 -0.6889 -0.4226
 2016TIP3   OH227606   6.218   4.374   8.091 -0.0548 -0.4089 -0.2671
 2016TIP3    H127607   6.256   4.384   8.178  1.0999 -1.6842 -0.5956
 2016TIP3    H227608   6.159   4.449   8.082 -0.6413 -0.5582  1.8198
 2017TIP3   OH227609   3.854   5.653   1.195  0.4214 -0.0541  0.4219
 2017TIP3    H127610   3.787   5.637   1.128 -2.3183 -0.5012  3.0400
 2017TIP3    H227611   3.923   5.590   1.175 -1.1900 -1.5366 -0.8568
 2018TIP3   OH227612   3.650   4.344   2.667  0.6555 -0.0416 -0.0605
 2018TIP3    H127613   3.623   4.268   2.718  2.0471 -1.2096 -0.9914
 2018TIP3    H227614   3.744   4.352   2.684  0.6968  0.9162 -0.6785
 2019TIP3   OH227615   5.448   0.262   0.761 -0.2765  0.1679  0.1662
 2019TIP3    H127616   5.415   0.337   0.712  1.4647  1.4575  0.8615
 2019TIP3    H227617   5.441   0.189   0.700  0.4942  1.4402 -1.5291
 2020TIP3   OH227618   6.222   0.141   2.022  0.4137 -0.3482  0.3608
 2020TIP3    H127619   6.127   0.133   2.023  0.2888  0.5164  2.6755
 2020TIP3    H227620   6.241   0.201   1.950 -0.9372  0.6921  0.8419
 2021TIP3   OH227621   0.234   5.199   2.624  0.0147 -0.0643 -0.8632
 2021TIP3    H127622   0.200   5.248   2.698  1.4021 -0.4081  0.0442
 2021TIP3    H227623   0.315   5.244   2.600  0.8847 -1.3989 -0.5351
 2022TIP3   OH227624   5.378   4.680   1.380  0.2704 -0.0422 -0.5294
 2022TIP3    H127625   5.332   4.738   1.441 -1.2803 -0.4277 -1.2837
 2022TIP3    H227626   5.385   4.732   1.299  1.2680  0.0411 -0.3999
 2023TIP3   OH227627   2.510   5.350   1.864 -0.0464 -0.3980  0.3424
 2023TIP3    H127628   2.500   5.259   1.893  0.1903  0.1810  2.4218
 2023TIP3    H227629   2.478   5.403   1.937  2.8674  1.2259  0.6195
 2024TIP3   OH227630   0.389   6.103   8.553 -0.4293  0.4119  0.0443
 2024TIP3    H127631   0.365   6.106   8.646 -2.2691 -0.1319 -0.3666
 2024TIP3    H227632   0.406   6.011   8.535  0.0857  0.5375 -0.1344
 2025TIP3   OH227633   1.550   4.731   1.363 -0.1385  0.3834 -0.5917
 2025TIP3    H127634   1.499   4.804   1.399 -0.7955  0.2580 -1.2486
 2025TIP3    H227635   1.534   4.658   1.424  1.6593  1.1362  0.8806
 2026TIP3   OH227636   2.341   3.598   1.383 -0.1176 -0.3749  0.4147
 2026TIP3    H127637   2.337   3.529   1.449  1.4547 -0.9988 -0.1029
 2026TIP3    H227638   2.406   3.660   1.416  0.2789 -0.4140 -0.2686
 2027TIP3   OH227639   4.314   5.634   3.106 -0.2340  0.0944  0.2612
 2027TIP3    H127640   4.359   5.596   3.031 -0.5525 -0.0476  0.1421
 2027TIP3    H227641   4.249   5.569   3.131  1.5360 -1.0290  2.2634
 2028TIP3   OH227642   3.472   0.866   8.595  0.5581  0.1412 -0.4426
 2028TIP3    H127643   3.480   0.806   8.521  2.1568  1.2574 -1.2351
 2028TIP3    H227644   3.557   0.862   8.639 -0.6439 -1.2151  1.9749
 2029TIP3   OH227645   1.519   1.930   2.723 -0.8294 -0.2911 -0.7073
 2029TIP3    H127646   1.566   1.965   2.800 -0.2103 -0.5085 -0.9769
 2029TIP3    H227647   1.525   2.000   2.658 -0.9323 -0.2969 -0.7232
 2030TIP3   OH227648   1.089   4.941   1.564 -0.0723  0.2592 -0.4138
 2030TIP3    H127649   1.070   4.899   1.648  0.2314 -1.5236 -1.1729
 2030TIP3    H227650   1.111   5.031   1.586  0.5576 -0.3074  1.4789
 2031TIP3   OH227651   3.484   4.005   1.274  0.1732  0.0528 -0.0440
 2031TIP3    H127652   3.431   3.991   1.195  1.4594 -1.5253 -0.6971
 2031TIP3    H227653   3.531   4.086   1.257  0.2902 -0.1665 -0.8482
 2032TIP3   OH227654   1.004   3.924   8.067 -0.3132  0.4520  1.0145
 2032TIP3    H127655   1.016   3.991   8.135 -0.2761  1.5538 -0.0451
 2032TIP3    H227656   1.040   3.963   7.988 -1.1354 -0.4562  0.1610
 2033TIP3   OH227657   1.636   0.538   8.708  0.0778  0.2065 -0.4631
 2033TIP3    H127658   1.652   0.629   8.734  1.1565  0.1686 -0.9370
 2033TIP3    H227659   1.660   0.535   8.616  0.2167 -0.6079 -0.4053
 2034TIP3   OH227660   2.655   0.194   0.194 -0.1052 -0.0838  0.0574
 2034TIP3    H127661   2.586   0.201   0.260  2.5058 -2.0533  3.3604
 2034TIP3    H227662   2.634   0.114   0.145 -0.9501  0.1556  0.0312
 2035TIP3   OH227663   5.803   4.757   2.657 -0.6122 -0.2852 -0.6244
 2035TIP3    H127664   5.848   4.708   2.588 -0.3812 -0.2960 -0.4643
 2035TIP3    H227665   5.756   4.826   2.610 -1.1174 -0.7879 -0.8714
 2036TIP3   OH227666   4.065   4.669   8.262 -0.3944  0.2332 -0.4407
 2036TIP3    H127667   4.103   4.697   8.179  0.0268 -2.0256 -1.0963
 2036TIP3    H227668   4.064   4.573   8.257 -1.7329  0.0652  1.5635
 2037TIP3   OH227669   0.699   4.887   1.086  0.6375  0.3491 -0.3235
 2037TIP3    H127670   0.729   4.797   1.099  1.0577  0.4963 -0.2545
 2037TIP3    H227671   0.604   4.880   1.084  0.5917  0.1020  1.3044
 2038TIP3   OH227672   5.349   1.680   7.973 -0.1110  0.2602  0.5020
 2038TIP3    H127673   5.337   1.725   7.889  0.9688  3.1736  1.7643
 2038TIP3    H227674   5.437   1.643   7.967 -0.0245  0.4841  0.3231
 2039TIP3   OH227675   2.924   2.020   0.759  0.3496 -0.4953  0.0289
 2039TIP3    H127676   2.985   2.077   0.712 -1.2060  2.5112  1.3150
 2039TIP3    H227677   2.949   2.029   0.851 -1.6974  0.5732  0.5498
 2040TIP3   OH227678   3.125   2.554   8.595  0.4645  0.3661  0.1538
 2040TIP3    H127679   3.121   2.564   8.500 -2.2943 -1.8912 -0.0961
 2040TIP3    H227680   3.065   2.619   8.629 -0.7950 -0.7252  0.0877
 2041TIP3   OH227681   3.671   3.622   2.900 -0.8435  0.6129 -0.0092
 2041TIP3    H127682   3.693   3.677   2.976 -0.2249  0.6581 -0.2144
 2041TIP3    H227683   3.590   3.578   2.925 -1.7834  2.1969 -0.1289
 2042TIP3   OH227684   3.745   4.461   1.283  0.4334 -0.3626 -0.0277
 2042TIP3    H127685   3.731   4.476   1.376 -1.3248 -1.4585 -0.0664
 2042TIP3    H227686   3.714   4.541   1.240  0.2934 -0.2491  0.2850
 2043TIP3   OH227687   1.697   0.336   0.583 -0.1219  0.2835 -0.1237
 2043TIP3    H127688   1.665   0.262   0.531 -1.0873 -1.3611  2.6285
 2043TIP3    H227689   1.618   0.384   0.608  0.2315  0.4591  0.6760
 2044TIP3   OH227690   4.487   0.273   2.598  0.0821 -0.2427  0.4122
 2044TIP3    H127691   4.550   0.238   2.661 -0.0043 -1.6234 -0.2306
 2044TIP3    H227692   4.437   0.196   2.570  0.4515  0.2592 -1.7301
 2045TIP3   OH227693   2.764   2.381   8.876  0.1055  1.1686  0.2190
 2045TIP3    H127694   2.752   2.453   8.814  2.3800  0.9137 -0.6229
 2045TIP3    H227695   2.702   2.400   8.946 -2.8829  1.2764 -2.2047
 2046TIP3   OH227696   1.591   1.986   2.386 -0.6405  0.6154  0.5958
 2046TIP3    H127697   1.559   1.982   2.296  1.0389  0.8228 -0.0593
 2046TIP3    H227698   1.590   2.080   2.407  1.7314  0.9214 -0.3382
 2047TIP3   OH227699   5.464   6.590   3.379 -0.4629  0.1385  0.3469
 2047TIP3    H127700   5.518   6.668   3.374  0.7813 -0.6839  0.4723
 2047TIP3    H227701   5.461   6.556   3.290 -3.2165  1.7225 -0.2586
 2048TIP3   OH227702   4.393   0.223   1.068  0.3752  0.7228  0.1871
 2048TIP3    H127703   4.440   0.299   1.102  1.0365  1.4570 -2.1306
 2048TIP3    H227704   4.462   0.164   1.036 -0.1959  0.3844 -0.4512
 2049TIP3   OH227705   2.676   5.602   0.668  0.2101 -0.2628 -0.1828
 2049TIP3    H127706   2.672   5.528   0.607 -0.9394 -1.5671  1.3892
 2049TIP3    H227707   2.584   5.622   0.688  0.5353 -0.5541  1.8623
 2050TIP3   OH227708   4.573   4.087   1.972 -0.7837  0.2017  0.2248
 2050TIP3    H127709   4.641   4.147   1.940  0.2483 -0.2886  1.4093
 2050TIP3    H227710   4.605   4.058   2.057 -1.8851 -1.0339  0.2472
 2051TIP3   OH227711   2.423   5.125   7.135  0.0348  0.0607 -0.3880
 2051TIP3    H127712   2.360   5.178   7.183  1.8395  1.0572  0.9899
 2051TIP3    H227713   2.445   5.177   7.058 -0.1694  0.1114 -0.4109
 2052TIP3   OH227714   5.728   6.318   0.984  0.0613  0.0481  0.2875
 2052TIP3    H127715   5.758   6.346   0.898  1.9629 -0.9627  0.5494
 2052TIP3    H227716   5.720   6.223   0.976 -0.5570  0.0314  1.0053
 2053TIP3   OH227717   2.837   0.616   2.323  0.0645  0.6300  0.2311
 2053TIP3    H127718   2.787   0.583   2.398 -1.1830  1.4111 -0.2310
 2053TIP3    H227719   2.927   0.589   2.341 -0.6362 -1.6520  0.6331
 2054TIP3   OH227720   2.408   3.969   3.371  0.0199  0.3272  0.2345
 2054TIP3    H127721   2.498   3.938   3.358 -0.1193  0.1447 -0.3286
 2054TIP3    H227722   2.415   4.064   3.369 -0.2949  0.4435 -3.9416
 2055TIP3   OH227723   0.419   4.202   0.434  0.2757 -0.1996  0.2367
 2055TIP3    H127724   0.432   4.214   0.528 -1.7051  3.2986  0.2369
 2055TIP3    H227725   0.467   4.274   0.394 -0.7439 -0.2975 -1.2300
 2056TIP3   OH227726   2.751   5.380   7.379 -0.3036  0.3836  0.7364
 2056TIP3    H127727   2.734   5.465   7.418  1.2177  1.8897 -1.6042
 2056TIP3    H227728   2.835   5.352   7.417  0.6828  1.3897 -0.5864
 2057TIP3   OH227729   5.715   3.277   8.791 -0.6143  0.3532 -0.1163
 2057TIP3    H127730   5.730   3.357   8.842 -1.0560  1.1527 -1.2036
 2057TIP3    H227731   5.794   3.225   8.805 -0.3950  0.8875  0.7589
 2058TIP3   OH227732   3.501   0.636   1.793 -0.4911  0.2235 -0.3660
 2058TIP3    H127733   3.537   0.555   1.758  0.3594  1.1607 -1.7301
 2058TIP3    H227734   3.413   0.641   1.755 -0.3322  0.2072 -0.7456
 2059TIP3   OH227735   6.130   3.690   0.300  0.7194 -0.4587  0.1522
 2059TIP3    H127736   6.185   3.767   0.317 -0.9340  1.5141 -2.6725
 2059TIP3    H227737   6.192   3.620   0.280  2.2509  0.3225  1.8861
 2060TIP3   OH227738   1.225   1.244   0.269  0.2817  0.2467 -0.2692
 2060TIP3    H127739   1.164   1.248   0.195 -0.4406  1.7861  0.3706
 2060TIP3    H227740   1.168   1.241   0.346  0.9695  1.9753  0.3531
 2061TIP3   OH227741   0.168   3.327   0.772 -0.4677 -0.0942 -0.5031
 2061TIP3    H127742   0.168   3.415   0.809  0.5224 -0.6530  0.9122
 2061TIP3    H227743   0.080   3.316   0.735 -0.7504  1.3100 -0.2854
 2062TIP3   OH227744   1.075   4.421   8.804  0.4947 -0.2896  0.2687
 2062TIP3    H127745   1.126   4.451   8.879 -1.3879  1.8871  0.8006
 2062TIP3    H227746   1.013   4.358   8.841 -0.8410  1.2324  0.7599
 2063TIP3   OH227747   0.357   0.236   1.041  0.3407 -0.1412 -0.3253
 2063TIP3    H127748   0.358   0.259   1.134 -1.2070  0.9132 -0.5228
 2063TIP3    H227749   0.414   0.301   1.000 -0.6935  0.8109 -0.3411
 2064TIP3   OH227750   5.942   3.192   3.477 -0.9025  0.2872  0.0471
 2064TIP3    H127751   5.905   3.217   3.562 -2.7559 -0.7958 -0.3821
 2064TIP3    H227752   5.912   3.261   3.417  0.3459  1.0125  0.2179
 2065TIP3   OH227753   4.817   5.301   8.823  0.5005 -0.1142 -0.4612
 2065TIP3    H127754   4.834   5.343   8.907  1.9357 -0.1881 -0.6903
 2065TIP3    H227755   4.750   5.355   8.782  2.5740  2.2981 -0.9310
 2066TIP3   OH227756   5.340   6.592   2.323 -0.7308  0.1628 -0.4219
 2066TIP3    H127757   5.407   6.544   2.371 -1.2495  1.4361  1.7456
 2066TIP3    H227758   5.257   6.560   2.359 -1.1166  1.5030 -0.0457
 2067TIP3   OH227759   2.749   2.354   0.530 -0.0978  0.0410  0.4788
 2067TIP3    H127760   2.723   2.312   0.612 -1.7733  0.1372  0.0303
 2067TIP3    H227761   2.827   2.307   0.502  0.2383 -0.2858  1.8886
 2068TIP3   OH227762   5.675   3.127   1.430 -0.1163 -0.5016 -0.3162
 2068TIP3    H127763   5.760   3.163   1.455  1.1888 -2.3694 -1.7777
 2068TIP3    H227764   5.643   3.085   1.509  1.1262 -1.2243 -0.1697
 2069TIP3   OH227765   3.154   1.434   1.353 -0.0751  0.3260 -0.1372
 2069TIP3    H127766   3.156   1.340   1.331  0.6301 -0.0257  1.3596
 2069TIP3    H227767   3.096   1.472   1.286 -1.5473 -1.4037  0.0641
 2070TIP3   OH227768   2.317   2.720   8.514  0.4273  0.4799  0.1471
 2070TIP3    H127769   2.250   2.659   8.483  1.2525  0.4662 -1.7431
 2070TIP3    H227770   2.354   2.677   8.591  0.7546 -1.3075 -0.9378
 2071TIP3   OH227771   1.288   4.825   0.796 -0.1135 -0.0251  0.2042
 2071TIP3    H127772   1.294   4.872   0.879 -0.1419 -0.5712  0.5189
 2071TIP3    H227773   1.202   4.782   0.799 -0.5614  0.7753 -0.5518
 2072TIP3   OH227774   2.232   3.250   0.006  0.0365 -0.1077  0.0027
 2072TIP3    H127775   2.227   3.206  -0.078  0.1966 -1.1927  0.5457
 2072TIP3    H227776   2.143   3.282   0.022 -0.5038 -1.6894  0.3447
 2073TIP3   OH227777   0.948   0.311   7.391 -0.2517  0.8648 -0.2346
 2073TIP3    H127778   0.955   0.236   7.449  1.1453  2.1088  1.2982
 2073TIP3    H227779   0.962   0.275   7.303  0.6936 -0.6203  0.4940
 2074TIP3   OH227780   1.800   1.149   2.446  0.0083 -0.7337 -0.3183
 2074TIP3    H127781   1.753   1.076   2.489 -1.0815 -0.4136 -0.9189
 2074TIP3    H227782   1.736   1.184   2.384  0.8644  0.1218 -0.7253
 2075TIP3   OH227783   2.470   2.850   1.648  0.0981  0.0130 -0.3489
 2075TIP3    H127784   2.428   2.776   1.605  1.4179 -0.7101 -0.4465
 2075TIP3    H227785   2.500   2.906   1.576  1.9805 -1.0149 -0.4366
 2076TIP3   OH227786   3.140   2.165   0.726 -0.4572 -0.0116 -0.1912
 2076TIP3    H127787   3.125   2.241   0.782 -0.9949  0.5612 -1.0912
 2076TIP3    H227788   3.231   2.140   0.744 -0.1954  0.9911 -0.0579
 2077TIP3   OH227789   2.709   6.771   1.110  0.0548 -0.8196 -0.5271
 2077TIP3    H127790   2.723   6.842   1.047 -0.9090 -2.3645 -2.5870
 2077TIP3    H227791   2.703   6.815   1.195  0.3368  1.4628 -1.6229
 2078TIP3   OH227792   1.070   6.215   2.273  0.4264 -0.0679 -0.3096
 2078TIP3    H127793   1.117   6.267   2.208 -1.4598 -1.5585 -3.0240
 2078TIP3    H227794   0.992   6.267   2.293  1.7764  1.1724  2.1971
 2079TIP3   OH227795   3.023   2.140   2.599 -0.1053 -0.2254 -0.1672
 2079TIP3    H127796   3.018   2.069   2.536 -0.8367 -1.0636  0.7976
 2079TIP3    H227797   3.081   2.204   2.559  2.5089 -2.3701 -0.0993
 2080TIP3   OH227798   6.743   6.702   8.794  0.3252  0.2502 -0.2069
 2080TIP3    H127799   6.679   6.765   8.760 -0.5744 -1.4760 -1.8878
 2080TIP3    H227800   6.804   6.756   8.845 -1.9106  2.1018  0.7281
 2081TIP3   OH227801   3.607   3.395   8.905  0.2561 -0.1059 -0.4965
 2081TIP3    H127802   3.663   3.318   8.907  0.6236  0.1091 -1.9215
 2081TIP3    H227803   3.530   3.368   8.855  0.0793  0.2501 -0.4241
 2082TIP3   OH227804   6.018   2.728   0.650  0.1374  0.1208 -0.0426
 2082TIP3    H127805   5.963   2.686   0.584 -0.9135  1.6721 -0.1973
 2082TIP3    H227806   6.079   2.782   0.600 -0.7072  1.3559  0.2388
 2083TIP3   OH227807   1.146   4.522   0.248  0.1555  0.7783  0.0660
 2083TIP3    H127808   1.114   4.434   0.272 -0.0997 -0.0706 -2.9741
 2083TIP3    H227809   1.077   4.581   0.276 -1.0783 -0.3490 -0.4741
 2084TIP3   OH227810   3.470   2.478   2.703  0.1898 -0.7176  0.0997
 2084TIP3    H127811   3.542   2.525   2.745 -0.3260 -1.9936  2.6101
 2084TIP3    H227812   3.418   2.546   2.659  0.9366  0.6893  1.3341
 2085TIP3   OH227813   4.058   3.642   2.852 -0.0234  0.2263 -0.0998
 2085TIP3    H127814   4.017   3.555   2.854  0.4372  0.0067 -0.2224
 2085TIP3    H227815   4.008   3.691   2.787 -1.0104  0.4169  0.7669
 2086TIP3   OH227816   5.214   6.347   0.818 -0.5400 -0.5237  0.6050
 2086TIP3    H127817   5.144   6.306   0.869  1.0952 -0.9005  2.7238
 2086TIP3    H227818   5.242   6.421   0.872  2.0464 -1.6137  0.8974
 2087TIP3   OH227819   5.414   6.460   1.876  0.1642  0.0601  0.1452
 2087TIP3    H127820   5.382   6.498   1.794 -2.0571 -0.4843  0.6923
 2087TIP3    H227821   5.423   6.535   1.935  0.5156  0.3033 -0.2164
 2088TIP3   OH227822   5.918   3.937   2.439  0.2724  0.0482 -0.2217
 2088TIP3    H127823   5.979   4.008   2.459  1.5980 -1.0214 -0.2760
 2088TIP3    H227824   5.890   3.904   2.524 -0.4378  0.6934 -0.1966
 2089TIP3   OH227825   1.071   4.689   7.310 -0.0957 -0.2399 -0.1644
 2089TIP3    H127826   1.132   4.643   7.368 -2.7207 -1.5581  1.7785
 2089TIP3    H227827   1.065   4.777   7.347  0.8717  0.0250 -0.6057
 2090TIP3   OH227828   2.511   0.777   8.023  0.3401 -0.5616  0.1944
 2090TIP3    H127829   2.604   0.764   8.044  0.6234  1.7708  0.6432
 2090TIP3    H227830   2.509   0.856   7.969 -1.4191 -0.3454  0.5070
 2091TIP3   OH227831   1.331   0.239   1.780  0.1548  0.3866 -0.5549
 2091TIP3    H127832   1.349   0.300   1.708 -2.1399  0.1150 -1.4441
 2091TIP3    H227833   1.269   0.285   1.836 -0.7354 -0.6621 -0.6379
 2092TIP3   OH227834   6.148   4.951   2.465  0.3614  0.2204  0.2823
 2092TIP3    H127835   6.100   4.933   2.384  1.7226  2.4881 -1.1243
 2092TIP3    H227836   6.097   5.017   2.510  1.1195  1.2093 -0.2677
 2093TIP3   OH227837   2.005   4.145   0.493 -0.4350  0.2855  0.3929
 2093TIP3    H127838   2.096   4.119   0.485 -0.9362 -1.6095  0.3939
 2093TIP3    H227839   1.991   4.209   0.423  0.5620 -0.3387 -0.3937
 2094TIP3   OH227840   1.024   2.459   3.513  0.4047  0.0595  0.3397
 2094TIP3    H127841   1.103   2.485   3.561 -1.2002  1.0492  2.6321
 2094TIP3    H227842   1.004   2.371   3.547 -0.3748  0.5000  1.0678
 2095TIP3   OH227843   2.670   2.120   0.367 -0.3388 -0.0842 -0.2145
 2095TIP3    H127844   2.610   2.194   0.355  1.5936  1.4343 -0.9919
 2095TIP3    H227845   2.660   2.068   0.287 -1.3180 -0.4135  0.1031
 2096TIP3   OH227846   0.800   4.884   8.297 -0.2029 -0.2565  0.0989
 2096TIP3    H127847   0.887   4.849   8.315  0.5753  1.6844  0.3042
 2096TIP3    H227848   0.798   4.899   8.203  0.6150  1.9158  0.3754
 2097TIP3   OH227849   1.757   1.430   1.567  0.5043 -0.4133 -0.0259
 2097TIP3    H127850   1.697   1.355   1.559  0.1391  0.0308 -2.2947
 2097TIP3    H227851   1.843   1.395   1.543  0.7962 -0.6038  1.2487
 2098TIP3   OH227852   4.209   2.946   8.273  0.0194  0.3241  0.1214
 2098TIP3    H127853   4.165   2.991   8.344 -0.1769 -0.1212  0.2866
 2098TIP3    H227854   4.258   3.015   8.227 -0.0781  0.6579  0.5131
 2099TIP3   OH227855   6.389   4.916   8.390 -0.1939 -0.0461 -0.4618
 2099TIP3    H127856   6.473   4.959   8.405  0.1501 -0.5643 -0.8657
 2099TIP3    H227857   6.406   4.853   8.319 -0.9628 -0.0294 -0.6749
 2100TIP3   OH227858   0.151   1.661   8.281 -0.3066 -0.4849 -0.1709
 2100TIP3    H127859   0.236   1.652   8.238 -0.6540 -2.2710 -0.5505
 2100TIP3    H227860   0.116   1.572   8.284 -2.1423  0.2082  0.0405
 2101TIP3   OH227861   1.038   4.161   8.240 -0.4215  0.1789 -0.0493
 2101TIP3    H127862   1.114   4.216   8.255  0.1321 -0.4902 -0.3550
 2101TIP3    H227863   0.967   4.222   8.221  0.4693  0.7733 -1.7073
 2102TIP3   OH227864   1.155   3.903   7.103  0.0742  0.2521 -0.4013
 2102TIP3    H127865   1.114   3.987   7.081  0.0828  0.1776 -0.7086
 2102TIP3    H227866   1.231   3.927   7.157 -1.1693  0.3137  1.4171
 2103TIP3   OH227867   5.760   2.250   2.526 -0.1691  0.6438 -0.3006
 2103TIP3    H127868   5.836   2.299   2.494 -0.0408  0.3204 -0.4924
 2103TIP3    H227869   5.774   2.161   2.495 -1.0601  0.7627 -1.0665
 2104TIP3   OH227870   3.954   2.440   1.460  0.1496  0.5719  0.3441
 2104TIP3    H127871   3.988   2.432   1.549  0.2931  3.1491  0.6033
 2104TIP3    H227872   3.872   2.489   1.470 -1.8893 -2.3728 -0.6343
 2105TIP3   OH227873   2.082   5.807   1.095 -0.6492  0.4534  0.1690
 2105TIP3    H127874   2.114   5.877   1.152  1.3701 -0.7054  0.5543
 2105TIP3    H227875   2.131   5.819   1.013  0.5044 -1.0368  0.5851
 2106TIP3   OH227876   2.912   3.003   0.612 -0.1254  0.2968 -0.1473
 2106TIP3    H127877   2.823   3.038   0.607 -0.0580  0.7115  1.1320
 2106TIP3    H227878   2.939   2.992   0.521 -1.4064  0.3562 -0.5543
 2107TIP3   OH227879   4.266   1.152   2.474  0.4301  0.1116  0.4233
 2107TIP3    H127880   4.333   1.181   2.412  0.9748 -0.6761  0.6318
 2107TIP3    H227881   4.283   1.058   2.487 -1.0192 -0.2293  0.0928
 2108TIP3   OH227882   6.265   5.029   8.634 -0.0928 -0.6163  0.0709
 2108TIP3    H127883   6.221   5.074   8.562 -0.7587 -0.7600  0.3765
 2108TIP3    H227884   6.294   4.946   8.596  1.1728  0.0582 -0.5023
 2109TIP3   OH227885   6.557   4.270   0.135 -0.0747  0.0438  0.0265
 2109TIP3    H127886   6.559   4.199   0.071  0.5473  0.4653 -0.4412
 2109TIP3    H227887   6.488   4.328   0.103  0.2272  0.2477 -0.2693
 2110TIP3   OH227888   4.929   4.785   1.052  0.4475 -0.3018 -0.2662
 2110TIP3    H127889   4.893   4.831   0.976  0.3064 -0.3150 -0.2080
 2110TIP3    H227890   4.852   4.761   1.103  0.5940  0.9116  0.5816
 2111TIP3   OH227891   0.120   2.761   2.320  0.3818 -0.3198  0.3668
 2111TIP3    H127892   0.191   2.819   2.349 -2.0719  3.5598 -0.6271
 2111TIP3    H227893   0.165   2.687   2.279  3.8760  1.7656  0.0331
 2112TIP3   OH227894   2.640   2.884   1.866 -0.3709  0.1154 -0.6982
 2112TIP3    H127895   2.707   2.920   1.807 -0.4311 -0.6046 -1.2238
 2112TIP3    H227896   2.572   2.850   1.807  0.7531 -3.0210 -0.3885
 2113TIP3   OH227897   0.889   0.886   1.708 -0.4990  0.2427  0.2232
 2113TIP3    H127898   0.972   0.913   1.749 -1.1851  0.1344  1.7428
 2113TIP3    H227899   0.912   0.869   1.617  0.7254  2.3221  0.0836
 2114TIP3   OH227900   1.641   0.992   0.745  0.0793  0.2306 -0.2919
 2114TIP3    H127901   1.582   0.925   0.779  1.3876 -0.4637  0.6991
 2114TIP3    H227902   1.720   0.984   0.799  1.9062 -0.2807 -2.8853
 2115TIP3   OH227903   3.219   3.082   1.214  0.4670 -0.4372  0.0350
 2115TIP3    H127904   3.254   3.065   1.126  0.3750  1.2572 -0.3672
 2115TIP3    H227905   3.288   3.053   1.273  0.8250 -0.9395 -0.6113
 2116TIP3   OH227906   6.405   4.577   0.953  0.4709  0.2196  0.4669
 2116TIP3    H127907   6.374   4.488   0.938 -0.1967  0.8479 -2.6193
 2116TIP3    H227908   6.331   4.621   0.995  0.4126 -0.3850  1.0203
 2117TIP3   OH227909   4.995   6.104   1.226 -0.0533  0.7085 -0.0183
 2117TIP3    H127910   5.010   6.113   1.320  0.9621 -1.7042  0.1229
 2117TIP3    H227911   4.920   6.046   1.218 -0.3842  1.2086 -0.7364
 2118TIP3   OH227912   0.402   5.809   0.760  0.4848  0.2312  0.2946
 2118TIP3    H127913   0.356   5.878   0.713 -1.9012 -0.3579  1.5801
 2118TIP3    H227914   0.477   5.788   0.705 -0.7730  1.2757 -1.9576
 2119TIP3   OH227915   3.204   0.725   0.680 -0.5169 -0.4438  0.2838
 2119TIP3    H127916   3.178   0.643   0.722 -1.7728  0.7597  1.9784
 2119TIP3    H227917   3.139   0.789   0.709  1.2458  1.4987  0.1896
 2120TIP3   OH227918   1.285   0.282   8.820 -0.3290  0.6088  0.2233
 2120TIP3    H127919   1.200   0.325   8.819 -0.5902  0.1662  1.6091
 2120TIP3    H227920   1.266   0.190   8.798 -0.4444  0.1814  1.9605
 2121TIP3   OH227921   0.342   2.380   3.251 -0.1660  0.1418  0.1924
 2121TIP3    H127922   0.400   2.397   3.178  1.0573 -0.5435  0.9655
 2121TIP3    H227923   0.262   2.429   3.231  1.3080  2.5967 -0.0544
 2122TIP3   OH227924   1.606   6.618   0.164 -0.0780  0.2811 -0.4216
 2122TIP3    H127925   1.621   6.683   0.096  1.4165 -0.8404 -1.2157
 2122TIP3    H227926   1.665   6.643   0.235  0.1120  0.0902 -0.5123
 2123TIP3   OH227927   0.347   6.755   8.271 -0.2580 -0.1301  0.2191
 2123TIP3    H127928   0.345   6.840   8.313 -0.1592 -1.1530  2.4097
 2123TIP3    H227929   0.266   6.712   8.298  0.2635 -1.1931  0.1527
 2124TIP3   OH227930   0.206   5.828   2.563 -0.0381 -0.1710  0.0847
 2124TIP3    H127931   0.122   5.834   2.609  0.1099 -0.6741  0.4327
 2124TIP3    H227932   0.230   5.919   2.544  0.2484  0.1150  1.6673
 2125TIP3   OH227933   4.246   2.345   2.076 -0.2024 -0.2721  0.5631
 2125TIP3    H127934   4.321   2.298   2.112 -0.3048 -1.7338 -1.0106
 2125TIP3    H227935   4.170   2.296   2.108 -0.2973 -1.5181 -1.4002
 2126TIP3   OH227936   5.883   1.964   0.292 -0.2196 -0.2665  0.0577
 2126TIP3    H127937   5.827   2.036   0.322 -0.5482 -0.1076 -0.9079
 2126TIP3    H227938   5.938   1.945   0.367 -1.6476 -0.5137  1.0992
 2127TIP3   OH227939   0.678   6.361   7.438 -0.0447  0.6290 -0.3932
 2127TIP3    H127940   0.666   6.297   7.508 -1.2648  0.6101 -0.5968
 2127TIP3    H227941   0.745   6.322   7.381 -0.5557 -0.3366 -0.3558
 2128TIP3   OH227942   6.111   3.285   1.696  0.4060 -0.2943 -0.1598
 2128TIP3    H127943   6.070   3.366   1.667 -0.1566 -0.0739  1.1660
 2128TIP3    H227944   6.062   3.260   1.775  2.0751 -0.6327  0.8217
 2129TIP3   OH227945   1.609   5.498   2.252 -0.7149  0.6874 -0.1661
 2129TIP3    H127946   1.697   5.516   2.285 -0.2693  1.6878 -1.8163
 2129TIP3    H227947   1.597   5.404   2.266  1.0083  0.3471 -0.7805
 2130TIP3   OH227948   2.852   3.059   2.560  0.3852  0.4256  0.3760
 2130TIP3    H127949   2.840   2.983   2.504 -0.5236 -0.2976  1.4996
 2130TIP3    H227950   2.784   3.121   2.532 -0.2421 -0.0428  0.8343
 2131TIP3   OH227951   3.589   3.665   7.328 -0.4554 -0.3503 -0.1942
 2131TIP3    H127952   3.611   3.644   7.238  1.2436  0.1315  0.0652
 2131TIP3    H227953   3.548   3.752   7.324 -0.2406 -0.2629 -0.4880
 2132TIP3   OH227954   6.426   6.542   8.491  0.3255 -0.2937 -0.0410
 2132TIP3    H127955   6.423   6.584   8.577  1.9652 -2.2662  1.0812
 2132TIP3    H227956   6.371   6.464   8.501  1.3039 -1.0609 -0.4195
 2133TIP3   OH227957   1.209   5.145   7.226  0.1555  0.5904  0.0480
 2133TIP3    H127958   1.139   5.184   7.174  0.0617  0.1039 -0.1954
 2133TIP3    H227959   1.163   5.095   7.294  0.2762  1.8045  1.0539
 2134TIP3   OH227960   4.518   1.858   1.611 -0.1543 -0.1234  0.0728
 2134TIP3    H127961   4.534   1.767   1.584  1.2570  0.3008 -0.6420
 2134TIP3    H227962   4.599   1.904   1.587 -1.7343  1.8527 -1.8372
 2135TIP3   OH227963   5.763   0.688   0.017 -0.1037  0.8016 -0.8466
 2135TIP3    H127964   5.731   0.600   0.040  0.5325  0.9953  0.9401
 2135TIP3    H227965   5.845   0.672  -0.029  1.2870  0.4495  1.6038
 2136TIP3   OH227966   1.716   5.172   2.254 -0.4067  0.0023 -0.3216
 2136TIP3    H127967   1.716   5.118   2.175 -0.1264 -2.6919  1.3897
 2136TIP3    H227968   1.623   5.183   2.274 -0.5827  2.3864 -1.9714
 2137TIP3   OH227969   3.141   2.758   2.361 -0.0700  0.5244 -0.5762
 2137TIP3    H127970   3.146   2.672   2.321 -1.3138  0.5917 -0.9145
 2137TIP3    H227971   3.185   2.748   2.446 -1.9667 -0.9999  0.2916
 2138TIP3   OH227972   3.483   3.222   0.330 -0.4616  0.8909 -0.3450
 2138TIP3    H127973   3.462   3.130   0.350 -0.5726  0.7792 -0.9508
 2138TIP3    H227974   3.429   3.242   0.253  1.0398  0.8546 -1.4422
 2139TIP3   OH227975   4.997   4.841   8.912 -0.1293  0.4972 -0.3194
 2139TIP3    H127976   4.965   4.858   8.824  0.2471  2.9999 -0.0491
 2139TIP3    H227977   5.082   4.799   8.899 -0.2903  0.4068 -1.1339
 2140TIP3   OH227978   3.186   4.652   8.468 -0.0145 -0.0386 -0.4422
 2140TIP3    H127979   3.245   4.727   8.472  0.8134 -0.6614 -0.8275
 2140TIP3    H227980   3.138   4.663   8.386 -1.2359  1.0395  0.3770
 2141TIP3   OH227981   2.360   2.317   0.643 -1.0545 -0.3223  0.5258
 2141TIP3    H127982   2.388   2.407   0.625 -0.0542 -0.8205 -0.5553
 2141TIP3    H227983   2.398   2.266   0.572 -3.1579 -1.3481  0.0817
 2142TIP3   OH227984   3.405   5.733   1.626 -0.3527  0.2610  0.2770
 2142TIP3    H127985   3.320   5.710   1.664 -1.0933  2.3817  0.0407
 2142TIP3    H227986   3.463   5.742   1.701 -1.0380  1.4356  0.6901
 2143TIP3   OH227987   0.152   2.413   8.768  0.5757  0.2239  0.3109
 2143TIP3    H127988   0.176   2.322   8.787  2.4569  0.4062 -0.9104
 2143TIP3    H227989   0.064   2.408   8.732 -0.7390 -0.7145  3.3233
 2144TIP3   OH227990   5.426   5.013   1.336  0.4613 -0.0930 -0.0424
 2144TIP3    H127991   5.364   5.046   1.401 -0.3992  0.2086 -0.9897
 2144TIP3    H227992   5.505   4.995   1.386 -0.2713 -0.1585  1.1396
 2145TIP3   OH227993   2.985   3.946   7.694 -0.0652 -0.4464 -0.2562
 2145TIP3    H127994   2.937   3.863   7.698  2.8576 -2.2514 -0.1096
 2145TIP3    H227995   3.026   3.946   7.607  1.1219  0.1263  0.2863
 2146TIP3   OH227996   3.120   3.275   8.694 -0.6156 -0.3757  0.1368
 2146TIP3    H127997   3.093   3.224   8.617  1.2457 -0.0086 -0.7921
 2146TIP3    H227998   3.078   3.360   8.683 -0.2617 -0.2872 -0.5292
 2147TIP3   OH227999   6.319   0.687   0.477 -0.1548  0.4121 -0.3956
 2147TIP3    H128000   6.227   0.701   0.455 -1.4358 -3.5815  1.4038
 2147TIP3    H228001   6.347   0.616   0.419  1.5100  0.9329 -0.2631
 2148TIP3   OH228002   2.551   3.751   8.022 -0.0878 -0.0701 -1.0238
 2148TIP3    H128003   2.511   3.801   8.093 -1.4497 -1.1380 -1.0123
 2148TIP3    H228004   2.478   3.707   7.979  0.9913 -1.4751 -1.4922
 2149TIP3   OH228005   0.402   3.434   8.663  0.4745  0.1265 -0.0858
 2149TIP3    H128006   0.424   3.353   8.709  0.6260  0.6961  0.8753
 2149TIP3    H228007   0.323   3.412   8.612  2.6034 -1.7330 -2.9560
 2150TIP3   OH228008   2.797   2.434   1.658 -0.0532  0.0477  0.2025
 2150TIP3    H128009   2.832   2.502   1.716  1.6236 -1.1233  0.6361
 2150TIP3    H228010   2.868   2.416   1.597 -0.6264 -1.0032 -0.1720
 2151TIP3   OH228011   5.980   1.645   1.320 -0.1092  0.0377 -0.0683
 2151TIP3    H128012   6.057   1.600   1.286 -0.0584  0.3490 -0.3772
 2151TIP3    H228013   5.993   1.737   1.295 -0.1090  0.2635  0.7363
 2152TIP3   OH228014   4.172   5.709   8.353 -0.4758  1.1932  0.0808
 2152TIP3    H128015   4.262   5.691   8.325 -0.8045 -0.6710  0.1211
 2152TIP3    H228016   4.154   5.797   8.319 -0.1286 -0.0470 -3.7438
 2153TIP3   OH228017   0.408   4.802   7.756 -0.1500  0.3000 -0.1215
 2153TIP3    H128018   0.320   4.834   7.735 -0.7967 -0.5846  1.0523
 2153TIP3    H228019   0.412   4.808   7.852 -0.7740 -3.9844  0.3747
 2154TIP3   OH228020   1.135   5.661   0.714 -0.5353  0.1711  0.2126
 2154TIP3    H128021   1.145   5.566   0.723 -0.0488  0.1734 -0.2897
 2154TIP3    H228022   1.062   5.683   0.773 -1.0704 -0.5972 -0.1482
 2155TIP3   OH228023   4.591   1.376   1.154  0.0308  0.1455  0.1171
 2155TIP3    H128024   4.603   1.353   1.062  0.0317  1.3318 -0.1948
 2155TIP3    H228025   4.666   1.337   1.198 -0.5101 -1.3271 -0.2023
 2156TIP3   OH228026   2.801   0.836   7.761 -0.6687 -0.0454 -0.0433
 2156TIP3    H128027   2.876   0.889   7.788 -0.0194 -0.8345 -0.2513
 2156TIP3    H228028   2.725   0.884   7.792 -0.0535  0.4985  0.6490
 2157TIP3   OH228029   5.052   6.143   1.480 -0.0057  0.1180  0.4382
 2157TIP3    H128030   5.006   6.222   1.508  0.0176  0.6222 -0.9013
 2157TIP3    H228031   5.132   6.142   1.533  0.3452  1.3850 -0.0369
 2158TIP3   OH228032   0.911   4.181   3.095  0.6391 -0.7239 -0.2901
 2158TIP3    H128033   0.975   4.128   3.048  1.2412 -1.7913  1.6360
 2158TIP3    H228034   0.853   4.118   3.138  0.6330  0.1586  1.0776
 2159TIP3   OH228035   0.699   5.634   7.370  0.6471 -0.1010  0.4623
 2159TIP3    H128036   0.744   5.573   7.428 -0.1423  0.4972  1.7334
 2159TIP3    H228037   0.708   5.719   7.413 -1.9128  0.0044  0.9273
 2160TIP3   OH228038   1.074   5.581   8.516  0.9102  0.0762 -0.2457
 2160TIP3    H128039   1.166   5.594   8.539  0.8048 -0.3415  0.4073
 2160TIP3    H228040   1.073   5.581   8.420  1.6780 -0.5442 -0.2571
 2161TIP3   OH228041   4.345   4.848   2.402  0.3021  0.1862  0.0642
 2161TIP3    H128042   4.371   4.920   2.344  0.8637 -1.2499 -1.5783
 2161TIP3    H228043   4.257   4.871   2.431 -0.2583  0.7111 -1.8760
 2162TIP3   OH228044   0.099   0.301   8.680  0.2682 -0.1824  0.0934
 2162TIP3    H128045   0.043   0.268   8.609 -0.1872 -0.9820  0.7994
 2162TIP3    H228046   0.124   0.389   8.653  0.6998 -0.7381 -1.4015
 2163TIP3   OH228047   0.186   2.793   1.916  0.0987 -0.0780 -0.0168
 2163TIP3    H128048   0.211   2.765   2.003 -0.4975  0.4968  0.3485
 2163TIP3    H228049   0.092   2.810   1.922  0.2822  1.2228 -0.4125
 2164TIP3   OH228050   5.594   0.071   3.363  0.0537 -0.2756  0.2394
 2164TIP3    H128051   5.563   0.160   3.347 -0.3930  0.2074  3.2009
 2164TIP3    H228052   5.681   0.069   3.324  0.4453  1.7697  0.8961
 2165TIP3   OH228053   6.512   6.562   0.799 -0.4812 -0.0756 -0.8130
 2165TIP3    H128054   6.466   6.636   0.839 -0.3757 -1.1197  1.3856
 2165TIP3    H228055   6.592   6.552   0.850 -1.9439 -3.6251  1.1806
 2166TIP3   OH228056   6.024   5.559   1.462 -0.0672  0.7434  0.0449
 2166TIP3    H128057   5.977   5.492   1.512  1.6662  0.2294  1.0746
 2166TIP3    H228058   6.006   5.641   1.509 -0.3806  0.6384  0.1066
 2167TIP3   OH228059   4.649   4.789   0.668 -0.5160  0.4316 -0.0499
 2167TIP3    H128060   4.577   4.852   0.665 -1.8381 -0.9596  0.7543
 2167TIP3    H228061   4.627   4.725   0.600 -0.2858 -0.2555  0.5115
 2168TIP3   OH228062   2.485   1.630   0.540 -0.3178 -0.1291 -0.5362
 2168TIP3    H128063   2.475   1.602   0.631 -1.5328 -2.2789 -1.2530
 2168TIP3    H228064   2.513   1.721   0.545 -3.2707  0.7758  1.9972
 2169TIP3   OH228065   6.235   6.613   2.787  0.0067 -0.2030  0.1483
 2169TIP3    H128066   6.149   6.572   2.796 -0.4220  0.7520  0.6063
 2169TIP3    H228067   6.218   6.691   2.734  0.2990  0.8050  1.4860
 2170TIP3   OH228068   1.036   0.338   8.164 -0.4675 -0.2604  0.0087
 2170TIP3    H128069   1.114   0.357   8.111 -0.1849 -1.3440  0.0164
 2170TIP3    H228070   0.966   0.388   8.122  0.6802  2.8957  1.5155
 2171TIP3   OH228071   0.635   4.604   7.133 -0.2478  1.1355  0.0990
 2171TIP3    H128072   0.713   4.646   7.169  1.2994 -0.7977 -0.8136
 2171TIP3    H228073   0.602   4.666   7.068  0.2774  2.1580  0.7931
 2172TIP3   OH228074   0.529   1.244   0.543 -0.1222  0.1824 -0.8564
 2172TIP3    H128075   0.589   1.230   0.617 -0.2685 -1.6921 -1.0379
 2172TIP3    H228076   0.451   1.284   0.583  0.9274  1.9546 -0.5044
 2173TIP3   OH228077   1.618   2.833   1.571 -0.4182  0.7056 -0.4874
 2173TIP3    H128078   1.540   2.801   1.616  0.1480 -0.5227 -0.3284
 2173TIP3    H228079   1.622   2.782   1.490  2.2278 -2.1746  1.1944
 2174TIP3   OH228080   3.854   4.761   8.073 -0.7905 -0.0916  0.1539
 2174TIP3    H128081   3.949   4.754   8.063 -0.9032 -0.3699 -0.8350
 2174TIP3    H228082   3.842   4.834   8.133  0.0574 -0.2469  0.5304
 2175TIP3   OH228083   3.309   1.291   0.247 -0.2731 -0.6167 -0.1341
 2175TIP3    H128084   3.289   1.212   0.296  0.2712 -0.4896  0.2962
 2175TIP3    H228085   3.262   1.361   0.293 -1.4597 -0.8083 -1.0144
 2176TIP3   OH228086   1.551   2.889   7.964  0.2560 -0.5119 -0.7164
 2176TIP3    H128087   1.623   2.857   7.911 -0.8494 -0.4147 -2.3278
 2176TIP3    H228088   1.517   2.965   7.917 -1.1639 -0.7993 -0.2096
 2177TIP3   OH228089   5.555   2.980   2.498  0.3571  0.0185 -0.4397
 2177TIP3    H128090   5.555   2.894   2.540 -1.4089 -0.7070 -1.8009
 2177TIP3    H228091   5.647   2.996   2.476  0.8748 -0.9720  0.8366
 2178TIP3   OH228092   4.320   3.425   2.306 -0.1422 -0.6421 -0.1766
 2178TIP3    H128093   4.303   3.342   2.262  1.8220 -0.7227 -0.8886
 2178TIP3    H228094   4.244   3.479   2.287  0.6483 -0.6045 -3.9569
 2179TIP3   OH228095   0.749   5.763   8.401 -0.3021  0.5479 -0.0089
 2179TIP3    H128096   0.736   5.850   8.437 -0.0978  0.7885 -0.5047
 2179TIP3    H228097   0.765   5.777   8.308 -3.4909 -0.2419 -0.7926
 2180TIP3   OH228098   1.706   3.680   7.747 -0.2464  0.0594  0.1003
 2180TIP3    H128099   1.625   3.688   7.797 -0.1993  1.3765  0.0135
 2180TIP3    H228100   1.776   3.679   7.813 -0.2422  0.8182  0.1217
 2181TIP3   OH228101   6.124   1.732   8.485  0.7178  0.3436  0.2089
 2181TIP3    H128102   6.203   1.751   8.536  0.2619 -2.4962  2.2785
 2181TIP3    H228103   6.053   1.774   8.535  0.7399  1.7448 -0.8974
 2182TIP3   OH228104   3.007   6.390   1.516 -0.3147 -0.1606  0.2121
 2182TIP3    H128105   3.100   6.381   1.536 -0.4753 -0.8782  0.6785
 2182TIP3    H228106   2.966   6.314   1.558 -1.1903  0.4740  0.5363
 2183TIP3   OH228107   6.055   6.335   7.656 -0.2166  0.8571 -0.1069
 2183TIP3    H128108   6.093   6.422   7.641  0.7913  0.3191 -0.7660
 2183TIP3    H228109   5.992   6.324   7.584  0.9295  0.3501 -1.0679
 2184TIP3   OH228110   4.099   5.748   2.856  0.6084  0.0095  0.7734
 2184TIP3    H128111   4.117   5.674   2.798  1.3141  0.6970  0.1022
 2184TIP3    H228112   4.138   5.824   2.812  0.0779  0.7524  1.5493
 2185TIP3   OH228113   6.623   0.625   2.783  0.0480  0.2218  0.3664
 2185TIP3    H128114   6.648   0.533   2.786  1.8995  0.6768 -0.1223
 2185TIP3    H228115   6.596   0.641   2.693 -0.1941  0.1874  0.4312
 2186TIP3   OH228116   4.462   5.858   2.318  0.6158 -0.1646  0.7723
 2186TIP3    H128117   4.498   5.917   2.384  3.1312 -0.1063 -0.5235
 2186TIP3    H228118   4.394   5.910   2.274  2.6182  1.8088 -0.2072
 2187TIP3   OH228119   6.487   6.180   8.325 -0.8300  0.1836  0.3578
 2187TIP3    H128120   6.540   6.111   8.366  2.0557  1.1870 -1.3653
 2187TIP3    H228121   6.445   6.137   8.250 -1.0172 -0.2374  0.7029
 2188TIP3   OH228122   3.948   1.587   1.604  0.3680 -0.2256  0.0684
 2188TIP3    H128123   4.023   1.633   1.566  0.4978 -2.2818 -2.4998
 2188TIP3    H228124   3.871   1.635   1.571  0.5338 -0.5095 -0.7607
 2189TIP3   OH228125   5.240   6.762   0.418  0.3890  0.0294  0.0608
 2189TIP3    H128126   5.256   6.852   0.388 -0.2959  0.0940 -0.1472
 2189TIP3    H228127   5.147   6.762   0.442 -0.0119 -1.0137 -1.3632
 2190TIP3   OH228128   5.883   1.821   8.573  0.4866 -0.0042 -0.3782
 2190TIP3    H128129   5.854   1.768   8.499 -0.9632 -0.4584  0.4646
 2190TIP3    H228130   5.846   1.908   8.557  1.7461  0.4306 -1.0899
 2191TIP3   OH228131   6.102   1.445   8.860  0.6563  0.1137 -0.1701
 2191TIP3    H128132   6.071   1.463   8.772  0.4337 -0.0282 -0.1216
 2191TIP3    H228133   6.183   1.495   8.868 -0.2354  1.5739  0.1574
 2192TIP3   OH228134   2.873   2.987   1.774  0.6771  0.2559  0.1229
 2192TIP3    H128135   2.843   3.068   1.734 -0.5528  0.0047  0.4889
 2192TIP3    H228136   2.961   2.974   1.739  0.6822  1.4569 -0.3555
 2193TIP3   OH228137   2.947   3.922   1.261 -0.2339 -0.2876 -0.1531
 2193TIP3    H128138   2.876   3.986   1.274 -0.2390 -0.4032  0.3814
 2193TIP3    H228139   2.908   3.838   1.284  0.5484 -0.1622  1.8034
 2194TIP3   OH228140   3.527   0.516   0.312 -0.7657  0.7227 -0.0730
 2194TIP3    H128141   3.525   0.596   0.365 -1.6864  1.0394 -0.5717
 2194TIP3    H228142   3.436   0.491   0.302 -0.5126 -0.1381 -0.3175
 2195TIP3   OH228143   4.811   2.039   2.207 -0.0178 -1.1306 -0.4561
 2195TIP3    H128144   4.794   2.054   2.114 -0.0154  1.7914 -0.0908
 2195TIP3    H228145   4.740   1.982   2.236 -2.0430  0.6565 -1.6021
 2196TIP3   OH228146   5.534   0.548   8.467  0.0750  0.1802  0.1316
 2196TIP3    H128147   5.466   0.492   8.428  0.3584  0.5799 -0.9720
 2196TIP3    H228148   5.567   0.497   8.541 -1.1750 -0.1724  0.4715
 2197TIP3   OH228149   2.836   6.007   1.083  0.3793 -0.0519  0.5120
 2197TIP3    H128150   2.864   5.928   1.129  0.9233  0.1340  0.5075
 2197TIP3    H228151   2.836   5.983   0.990  1.8496  0.3291  0.3939
 2198TIP3   OH228152   3.927   5.374   1.602  0.6018 -0.0116  0.0444
 2198TIP3    H128153   3.994   5.428   1.559  1.1209 -0.7579 -0.1053
 2198TIP3    H228154   3.861   5.437   1.632  0.2494  0.5273 -1.7827
 2199TIP3   OH228155   2.947   4.646   2.014  0.0625  0.2341  0.5213
 2199TIP3    H128156   2.964   4.683   2.101  3.5265  0.5630 -0.1827
 2199TIP3    H228157   2.998   4.565   2.012  1.3631  1.0329 -1.7177
 2200TIP3   OH228158   2.870   4.897   2.734 -0.1109  0.2878 -0.2786
 2200TIP3    H128159   2.810   4.887   2.808  0.0781  2.8217  0.3255
 2200TIP3    H228160   2.920   4.816   2.731 -0.5112 -0.0986  2.0451
 2201TIP3   OH228161   2.093   0.286   1.896 -0.8677 -0.1752 -0.2175
 2201TIP3    H128162   2.076   0.260   1.805 -0.7988 -1.5869  0.1656
 2201TIP3    H228163   2.044   0.225   1.949  1.0083 -0.9237  0.7592
 2202TIP3   OH228164   2.209   5.510   0.878 -0.2197  0.4479 -0.0203
 2202TIP3    H128165   2.137   5.571   0.862 -0.1789  0.4022 -0.3689
 2202TIP3    H228166   2.194   5.480   0.968 -0.7624  0.2704 -0.1641
 2203TIP3   OH228167   1.862   4.326   8.588  0.5833 -0.2009  0.0472
 2203TIP3    H128168   1.799   4.306   8.657  1.5873 -1.3705  0.6634
 2203TIP3    H228169   1.814   4.311   8.507  0.1313 -1.3080  0.5054
 2204TIP3   OH228170   3.958   6.544   2.271 -1.2316 -0.0349  0.0990
 2204TIP3    H128171   3.864   6.563   2.267 -1.2701 -0.0501  0.9159
 2204TIP3    H228172   3.965   6.470   2.331 -0.6308  0.4132  0.5833
 2205TIP3   OH228173   3.224   3.217   0.671 -0.4643  0.0094 -0.0617
 2205TIP3    H128174   3.198   3.229   0.580  0.9088 -1.5912 -0.7149
 2205TIP3    H228175   3.311   3.177   0.666 -0.3801 -0.1495  1.9628
 2206TIP3   OH228176   5.288   4.602   7.818  0.0637  0.2590 -0.3134
 2206TIP3    H128177   5.307   4.639   7.732  0.5342 -0.2702 -0.4470
 2206TIP3    H228178   5.374   4.574   7.852 -0.1002  0.5489  0.3745
 2207TIP3   OH228179   4.672   2.314   8.174 -0.2660  0.3035  0.4052
 2207TIP3    H128180   4.697   2.398   8.213 -0.4232  0.5532 -0.0287
 2207TIP3    H228181   4.593   2.333   8.124  1.5333  0.6830 -2.5361
 2208TIP3   OH228182   0.346   5.206   1.527 -0.1140 -0.1907 -0.0088
 2208TIP3    H128183   0.413   5.227   1.592  0.4898  0.3003 -0.7656
 2208TIP3    H228184   0.355   5.112   1.512 -1.0808 -0.5562  1.4964
 2209TIP3   OH228185   0.498   4.405   2.436  0.4556 -0.8033  0.4667
 2209TIP3    H128186   0.575   4.443   2.479  0.0522  2.0031 -1.0221
 2209TIP3    H228187   0.429   4.470   2.449 -0.3351 -0.9926 -2.1277
 2210TIP3   OH228188   2.005   4.741   0.929  0.1630  0.6065  0.2363
 2210TIP3    H128189   1.984   4.705   1.015 -2.0410  2.2168  0.4349
 2210TIP3    H228190   2.065   4.814   0.946 -2.3803  2.6836  0.7681
 2211TIP3   OH228191   5.545   2.272   1.677  0.3732  0.4070 -0.0925
 2211TIP3    H128192   5.521   2.354   1.720  2.6918  1.4843 -0.7048
 2211TIP3    H228193   5.463   2.223   1.671 -1.2137  2.9151 -0.2257
 2212TIP3   OH228194   0.175   3.761   2.129 -0.0126 -0.5287  0.4208
 2212TIP3    H128195   0.260   3.764   2.174 -0.9327  1.7188  2.2342
 2212TIP3    H228196   0.148   3.670   2.136  0.7979 -0.6622  2.7778
 2213TIP3   OH228197   1.830   4.414   0.799  0.3443  0.2322 -0.6295
 2213TIP3    H128198   1.869   4.478   0.738  0.9323  1.4735  0.9714
 2213TIP3    H228199   1.878   4.333   0.782  1.7052  1.0051 -0.6593
 2214TIP3   OH228200   0.830   0.842   1.100  0.4132 -0.1199 -0.1414
 2214TIP3    H128201   0.904   0.902   1.107  0.0110  0.3837 -0.1270
 2214TIP3    H228202   0.808   0.820   1.191  0.0462  0.3642 -0.1060
 2215TIP3   OH228203   0.126   0.841   0.110  0.2371  0.4524 -0.6590
 2215TIP3    H128204   0.080   0.766   0.072 -1.7954  1.7356 -0.8120
 2215TIP3    H228205   0.066   0.914   0.101  1.3808  1.7192  1.2556
 2216TIP3   OH228206   3.786   4.642   0.652 -0.5687 -0.1111 -0.0718
 2216TIP3    H128207   3.880   4.631   0.637 -0.2561 -0.7701  2.0485
 2216TIP3    H228208   3.744   4.585   0.588  0.4531  0.2743 -1.1154
 2217TIP3   OH228209   3.376   3.874   2.053 -0.1628  0.2438 -0.0137
 2217TIP3    H128210   3.400   3.783   2.068 -1.2253 -0.1034 -0.3396
 2217TIP3    H228211   3.445   3.924   2.097 -0.6800 -0.6969  1.9760
 2218TIP3   OH228212   0.429   0.919   0.956 -0.3003 -1.0867  0.4614
 2218TIP3    H128213   0.357   0.938   0.896  1.8610 -1.9438 -2.6372
 2218TIP3    H228214   0.391   0.860   1.021 -2.1608 -2.5025 -1.7472
 2219TIP3   OH228215   6.201   6.274   7.910 -0.0218 -0.5363 -0.6843
 2219TIP3    H128216   6.197   6.206   7.978 -1.3484 -1.2345 -1.4258
 2219TIP3    H228217   6.160   6.234   7.833 -0.9251  1.1174 -1.1166
 2220TIP3   OH228218   3.772   2.923   0.327 -0.6092  0.4773  0.0948
 2220TIP3    H128219   3.760   2.998   0.385 -0.9189  1.9222 -1.7384
 2220TIP3    H228220   3.851   2.943   0.277 -0.5452 -0.5546 -0.2474
 2221TIP3   OH228221   2.782   1.729   2.523  0.3388 -0.6114  0.0345
 2221TIP3    H128222   2.840   1.740   2.598  0.0487  0.1395  0.1604
 2221TIP3    H228223   2.840   1.705   2.451  0.6641 -0.9633  0.4093
 2222TIP3   OH228224   6.204   3.260   8.021 -0.6911 -0.1798  0.4864
 2222TIP3    H128225   6.135   3.325   8.012 -0.1676  0.3020 -0.1784
 2222TIP3    H228226   6.264   3.278   7.948  1.0651  0.5574  2.0141
 2223TIP3   OH228227   4.601   4.004   0.234 -0.0981 -0.7795  0.4596
 2223TIP3    H128228   4.600   4.088   0.279  2.0019  0.3998 -1.4976
 2223TIP3    H228229   4.581   3.940   0.303 -0.7436  1.1842  2.2183
 2224TIP3   OH228230   3.723   4.380   0.502  0.2366 -0.2760 -0.0479
 2224TIP3    H128231   3.691   4.414   0.419  0.5954 -0.9044 -0.4428
 2224TIP3    H228232   3.812   4.351   0.484  0.5334  0.1380  0.7022
 2225TIP3   OH228233   3.133   6.746   2.885  0.0861 -0.2329 -0.6312
 2225TIP3    H128234   3.214   6.759   2.933 -0.2843  0.1130 -0.0873
 2225TIP3    H228235   3.160   6.739   2.793  0.6214  1.2104 -0.6104
 2226TIP3   OH228236   2.852   6.493   2.071  0.4757  0.2132  0.4179
 2226TIP3    H128237   2.818   6.518   2.157  0.3975 -0.4310  0.5796
 2226TIP3    H228238   2.793   6.534   2.008 -1.6212 -2.1470  0.6831
 2227TIP3   OH228239   2.734   5.015   7.631  0.1648  0.0163  0.0113
 2227TIP3    H128240   2.673   5.010   7.557 -0.0002 -0.4967  0.1792
 2227TIP3    H228241   2.820   5.030   7.590 -0.0554  0.6692 -0.2292
 2228TIP3   OH228242   5.065   6.371   1.997  0.0428 -0.3365  0.1135
 2228TIP3    H128243   5.159   6.383   2.012  0.4273  0.3455 -2.3397
 2228TIP3    H228244   5.042   6.295   2.050  1.8788 -0.2518  1.1261
 2229TIP3   OH228245   5.848   0.172   8.840  0.0345 -0.3099  0.5672
 2229TIP3    H128246   5.930   0.124   8.829  0.9566  1.6939 -2.4133
 2229TIP3    H228247   5.785   0.124   8.785 -0.0409 -0.2514  0.6026
 2230TIP3   OH228248   6.145   2.732   1.539 -0.0390 -0.4672 -0.7195
 2230TIP3    H128249   6.188   2.800   1.487 -1.3091  0.5996 -0.4536
 2230TIP3    H228250   6.136   2.771   1.626 -1.4803 -0.6545 -0.7614
 2231TIP3   OH228251   6.555   2.664   7.514 -0.5875 -0.5790 -0.6077
 2231TIP3    H128252   6.626   2.662   7.449 -1.3516 -0.4172 -1.4687
 2231TIP3    H228253   6.482   2.621   7.470 -2.2814  2.6471 -1.2808
 2232TIP3   OH228254   6.708   0.722   0.463  0.0179  0.4149 -0.7662
 2232TIP3    H128255   6.693   0.765   0.379 -0.2150  0.1644 -0.8546
 2232TIP3    H228256   6.646   0.648   0.464 -0.6074  0.9352  0.0053
 2233TIP3   OH228257   4.354   3.145   8.119  0.0583 -0.0880  0.0894
 2233TIP3    H128258   4.358   3.137   8.024  0.3280 -2.2087  0.2336
 2233TIP3    H228259   4.289   3.213   8.135 -0.6309 -0.3070 -1.5971
 2234TIP3   OH228260   4.381   0.157   1.721  0.2920  0.1433 -0.2160
 2234TIP3    H128261   4.361   0.064   1.713 -0.5853  0.2812  0.3206
 2234TIP3    H228262   4.409   0.183   1.633  0.5978 -0.6325 -0.3579
 2235TIP3   OH228263   5.545   3.211   2.776 -0.3482 -0.1589 -0.1390
 2235TIP3    H128264   5.503   3.130   2.747 -0.6387 -0.5681  1.3382
 2235TIP3    H228265   5.638   3.190   2.781 -0.3286 -0.1626 -0.4956
 2236TIP3   OH228266   6.349   4.708   8.819  0.1129 -0.6283  0.1001
 2236TIP3    H128267   6.314   4.658   8.745 -1.4616 -0.1419  0.4706
 2236TIP3    H228268   6.273   4.722   8.876  0.9308  0.5148  0.9428
 2237TIP3   OH228269   0.582   5.212   2.623  0.4419 -0.1603  0.1348
 2237TIP3    H128270   0.569   5.271   2.550  1.8040  0.8722  0.6660
 2237TIP3    H228271   0.528   5.248   2.693  3.2718  2.2295  1.3344
 2238TIP3   OH228272   4.547   2.426   8.810 -0.1069 -0.0432  0.0793
 2238TIP3    H128273   4.532   2.358   8.875  0.5698  1.0633  1.4526
 2238TIP3    H228274   4.599   2.383   8.742 -0.7037 -1.1881  0.3334
 2239TIP3   OH228275   2.337   0.769   1.587  0.2701  0.1960 -0.2267
 2239TIP3    H128276   2.248   0.763   1.552 -0.7458 -1.1790  2.3535
 2239TIP3    H228277   2.344   0.859   1.619  0.2843  0.6576 -1.4435
 2240TIP3   OH228278   5.582   5.518   1.489 -0.4755 -0.0823 -0.0303
 2240TIP3    H128279   5.606   5.602   1.449 -0.1468 -0.6150 -0.9774
 2240TIP3    H228280   5.664   5.484   1.524 -0.3855 -0.5299 -0.6582
 2241TIP3   OH228281   0.275   3.320   1.269  0.5349 -0.1952  0.1709
 2241TIP3    H128282   0.362   3.282   1.281  0.6828  0.1731  0.2791
 2241TIP3    H228283   0.291   3.413   1.256  0.1906 -0.2031 -0.3345
 2242TIP3   OH228284   4.196   1.883   0.052 -0.1520 -0.2676 -0.2499
 2242TIP3    H128285   4.120   1.938   0.033 -0.7290 -1.0897 -0.3699
 2242TIP3    H228286   4.251   1.890  -0.026 -1.1967 -1.4579 -1.1216
 2243TIP3   OH228287   4.265   3.779   0.914 -0.5059  0.0789  0.0767
 2243TIP3    H128288   4.188   3.729   0.888 -1.2816 -0.1059  2.4811
 2243TIP3    H228289   4.309   3.800   0.832 -1.1929 -2.8567 -1.1574
 2244TIP3   OH228290   6.316   0.868   0.896 -0.1417 -0.4299 -0.0028
 2244TIP3    H128291   6.324   0.941   0.957  0.2183 -0.1052 -0.4321
 2244TIP3    H228292   6.384   0.806   0.924  0.7760  0.2123 -0.7382
 2245TIP3   OH228293   4.525   0.040   8.824 -0.1105 -0.2007  0.3308
 2245TIP3    H128294   4.476   0.116   8.795 -1.4914 -0.7785  1.0402
 2245TIP3    H228295   4.524   0.046   8.920  2.4968  0.5419  0.3869
 2246TIP3   OH228296   4.997   5.821   8.474  0.2877 -0.2136 -1.1856
 2246TIP3    H128297   5.042   5.859   8.398  0.7306 -0.8804 -1.2669
 2246TIP3    H228298   4.932   5.763   8.436  0.3309 -0.3461 -1.0542
 2247TIP3   OH228299   4.910   2.678   2.352  0.8852  0.3135 -0.3784
 2247TIP3    H128300   4.958   2.716   2.278  2.0516  2.2278  1.2491
 2247TIP3    H228301   4.971   2.683   2.425  0.2352 -2.7339  0.4886
 2248TIP3   OH228302   1.621   3.442   0.362 -0.6062 -0.1105 -0.3220
 2248TIP3    H128303   1.543   3.497   0.355 -0.1674  0.4760 -0.5594
 2248TIP3    H228304   1.629   3.425   0.456 -0.4855  0.6032 -0.1993
 2249TIP3   OH228305   6.608   4.619   8.085  0.6321  0.2686 -0.0430
 2249TIP3    H128306   6.662   4.601   8.162  0.7628  0.9045  0.0157
 2249TIP3    H228307   6.631   4.549   8.023  1.0987  0.2068  0.1970
 2250TIP3   OH228308   3.403   5.444   0.498 -0.1869 -0.0065 -0.1206
 2250TIP3    H128309   3.358   5.386   0.437 -1.7573  1.4522 -0.4492
 2250TIP3    H228310   3.336   5.508   0.524  1.0824  0.8358  1.2827
 2251TIP3   OH228311   5.560   6.167   2.212 -0.5171 -0.2579 -0.0236
 2251TIP3    H128312   5.632   6.230   2.215 -1.3969  0.7461  0.8155
 2251TIP3    H228313   5.524   6.167   2.301 -0.8685 -1.5863 -0.1349
 2252TIP3   OH228314   5.998   5.818   2.328 -0.2111 -0.4983 -0.8081
 2252TIP3    H128315   5.993   5.809   2.233 -2.5528 -0.3689 -0.7575
 2252TIP3    H228316   6.046   5.740   2.357  1.3967 -0.0563 -2.1233
 2253TIP3   OH228317   4.359   6.393   0.746 -0.3478 -0.1024 -0.5844
 2253TIP3    H128318   4.420   6.419   0.677  1.2883 -0.9917  0.4469
 2253TIP3    H228319   4.337   6.302   0.726  0.6816 -0.5936  0.3768
 2254TIP3   OH228320   3.980   2.507   2.866  0.2057  0.0133  0.6503
 2254TIP3    H128321   3.941   2.592   2.847  0.8372  0.7639  2.4230
 2254TIP3    H228322   4.075   2.522   2.858  0.2726 -1.2339 -1.5448
 2255TIP3   OH228323   0.185   0.933   0.824 -0.4373  0.2337 -0.6310
 2255TIP3    H128324   0.128   0.917   0.749 -0.5084  1.6849 -0.9254
 2255TIP3    H228325   0.128   0.923   0.900 -1.0405  1.3326 -0.9086
 2256TIP3   OH228326   1.253   2.872   2.634  0.0320 -0.4230 -0.0792
 2256TIP3    H128327   1.297   2.805   2.582  0.6315 -0.6083  0.6401
 2256TIP3    H228328   1.276   2.850   2.725  2.2094  2.0856  0.0964
 2257TIP3   OH228329   2.579   0.173   1.295  0.1005 -0.1921 -0.5351
 2257TIP3    H128330   2.643   0.211   1.355 -0.2003 -1.4410  0.6046
 2257TIP3    H228331   2.522   0.246   1.272  2.0787  1.0473 -1.8565
 2258TIP3   OH228332   3.084   3.048   0.840  0.1182  0.1121 -0.3534
 2258TIP3    H128333   3.022   2.998   0.788  0.1422  0.7283 -0.9998
 2258TIP3    H228334   3.113   3.118   0.782  1.8314 -0.4656 -0.2609
 2259TIP3   OH228335   5.442   1.911   3.212 -0.0453  0.0198 -0.4166
 2259TIP3    H128336   5.382   1.873   3.276  0.5328 -0.8667 -0.3996
 2259TIP3    H228337   5.509   1.955   3.264  1.0555 -1.6592 -0.3689
 2260TIP3   OH228338   3.922   4.132   7.562 -0.1808  0.1854 -0.2704
 2260TIP3    H128339   3.979   4.071   7.515  0.1775  2.2428 -2.7432
 2260TIP3    H228340   3.975   4.161   7.636  0.2927 -1.1995 -0.0458
 2261TIP3   OH228341   0.468   1.290   8.404 -0.0695  0.5018  0.1732
 2261TIP3    H128342   0.557   1.307   8.436  0.0129 -0.3893  0.4357
 2261TIP3    H228343   0.453   1.198   8.423 -1.0443  0.6384  0.0919
 2262TIP3   OH228344   3.890   5.418   0.878 -0.3262 -0.0400  0.8368
 2262TIP3    H128345   3.821   5.352   0.863  1.8721 -2.0544 -1.2421
 2262TIP3    H228346   3.879   5.481   0.807  0.9644 -1.3401 -0.5758
 2263TIP3   OH228347   2.912   3.912   2.441  0.3088 -0.4159 -0.6606
 2263TIP3    H128348   2.918   3.971   2.366 -0.6895  0.2424 -0.2576
 2263TIP3    H228349   2.864   3.836   2.408 -1.5287  0.5453 -0.3528
 2264TIP3   OH228350   4.950   2.217   8.891 -0.2906  0.4537  0.5288
 2264TIP3    H128351   4.917   2.270   8.818 -0.7296 -0.8744 -0.2717
 2264TIP3    H228352   4.973   2.281   8.958 -0.4972  1.6795 -0.5179
 2265TIP3   OH228353   6.614   4.961   1.128  0.3586 -0.1331  0.4981
 2265TIP3    H128354   6.531   4.982   1.170 -0.6502  1.1752 -1.9183
 2265TIP3    H228355   6.679   4.963   1.199 -0.8639  3.9582  1.7567
 2266TIP3   OH228356   5.607   2.096   8.320 -0.1436 -0.2773 -0.1344
 2266TIP3    H128357   5.547   2.053   8.380  1.6000 -0.6645  1.4005
 2266TIP3    H228358   5.694   2.070   8.350  0.8681 -2.1060 -3.9752
 2267TIP3   OH228359   3.503   1.834   2.935 -0.1865 -0.3531 -0.2368
 2267TIP3    H128360   3.549   1.898   2.989 -1.7307  1.1128 -0.5617
 2267TIP3    H228361   3.443   1.887   2.882 -0.8433 -2.0061 -1.2105
 2268TIP3   OH228362   6.521   3.857   8.596  0.0549 -0.4143 -0.0969
 2268TIP3    H128363   6.593   3.797   8.576 -0.5092 -1.3632  0.6336
 2268TIP3    H228364   6.520   3.863   8.691  0.8255  1.6875 -0.1805
 2269TIP3   OH228365   3.344   0.858   0.486  0.7625  0.1599 -0.1141
 2269TIP3    H128366   3.428   0.856   0.532  1.2091 -1.1299 -0.9202
 2269TIP3    H228367   3.288   0.799   0.536  1.0329 -0.6911 -0.7776
 2270TIP3   OH228368   3.114   4.984   2.108  0.0511 -0.5874  0.1667
 2270TIP3    H128369   3.024   5.017   2.101  0.6969  1.4891  0.9321
 2270TIP3    H228370   3.128   4.970   2.201  0.7076 -0.3315  0.1138
 2271TIP3   OH228371   2.824   3.568   1.869  0.3944  0.0840 -0.5512
 2271TIP3    H128372   2.901   3.600   1.822 -0.1893  0.2523 -1.4213
 2271TIP3    H228373   2.768   3.531   1.801  0.4252 -1.5576  0.2672
 2272TIP3   OH228374   3.370   1.996   2.777  0.7188 -0.6691 -0.0575
 2272TIP3    H128375   3.436   1.984   2.709  0.9378  0.3966 -0.0511
 2272TIP3    H228376   3.354   2.091   2.778 -0.4519 -0.8537  0.2719
 2273TIP3   OH228377   5.009   0.417   1.089 -0.1645 -0.2087  0.3894
 2273TIP3    H128378   4.921   0.383   1.071 -0.3092  0.2762  0.1719
 2273TIP3    H228379   5.056   0.342   1.125 -0.1484 -0.9350 -1.0952
 2274TIP3   OH228380   6.751   0.191   0.607  0.3468  0.4457 -0.3701
 2274TIP3    H128381   6.713   0.252   0.671 -0.9426  0.7025 -1.3528
 2274TIP3    H228382   6.677   0.162   0.555  1.5745  1.6894 -2.9912
 2275TIP3   OH228383   1.863   0.627   0.805 -0.0970 -0.0759 -0.1536
 2275TIP3    H128384   1.871   0.689   0.878  2.8234 -0.1189 -0.3101
 2275TIP3    H228385   1.813   0.674   0.739 -0.4788  0.9866  0.8538
 2276TIP3   OH228386   6.771   4.411   8.018 -0.6388 -0.0415  0.2231
 2276TIP3    H128387   6.799   4.365   7.939 -0.3310  3.0508 -1.6376
 2276TIP3    H228388   6.847   4.465   8.042 -2.4194  3.1527 -0.7161
 2277TIP3   OH228389   5.355   2.169   0.171  0.6879 -0.3632  0.1962
 2277TIP3    H128390   5.268   2.157   0.208  1.2188  0.0828  1.6604
 2277TIP3    H228391   5.406   2.095   0.204  1.0499 -0.2285 -0.0487
 2278TIP3   OH228392   6.641   2.719   2.667 -0.0671 -0.3298 -0.1913
 2278TIP3    H128393   6.602   2.723   2.580 -1.3120  1.1306  0.3851
 2278TIP3    H228394   6.577   2.762   2.724  1.1558 -0.3692  1.2807
 2279TIP3   OH228395   5.251   4.838   7.991 -0.2012 -0.4935  0.8755
 2279TIP3    H128396   5.294   4.783   7.926 -0.3784  0.9227 -0.4858
 2279TIP3    H228397   5.201   4.777   8.045  3.1624 -2.2159  2.3497
 2280TIP3   OH228398   5.496   2.315   8.216  0.4256 -0.1945  0.5763
 2280TIP3    H128399   5.415   2.268   8.198  1.6891 -1.7063 -1.7260
 2280TIP3    H228400   5.559   2.247   8.239  1.7388  0.5744 -0.5839
 2281TIP3   OH228401   4.954   6.553   0.477 -0.8042 -0.0125 -0.2916
 2281TIP3    H128402   5.020   6.511   0.421 -1.4522 -0.9588 -0.3606
 2281TIP3    H228403   4.924   6.629   0.427 -0.0347  0.2190 -0.4142
 2282TIP3   OH228404   1.135   2.616   7.420 -0.1576 -0.2050  0.4925
 2282TIP3    H128405   1.172   2.685   7.364  1.7697 -2.1398 -0.7701
 2282TIP3    H228406   1.042   2.638   7.426  0.1549  1.8072 -0.8955
 2283TIP3   OH228407   5.257   3.320   3.092 -0.0789 -0.6172  0.3591
 2283TIP3    H128408   5.206   3.389   3.133  0.1399 -0.8114  0.9604
 2283TIP3    H228409   5.222   3.314   3.003 -1.9102 -1.5352  1.0837
 2284TIP3   OH228410   6.612   5.688   0.449  0.0331 -0.3072 -0.2435
 2284TIP3    H128411   6.691   5.735   0.422 -0.8558  0.1662 -2.2500
 2284TIP3    H228412   6.642   5.600   0.472  1.0442 -0.4868 -2.0955
 2285TIP3   OH228413   4.222   6.482   2.244  0.1811  0.3975  0.4590
 2285TIP3    H128414   4.243   6.512   2.156  0.6755  0.6042  0.6401
 2285TIP3    H228415   4.130   6.508   2.257  0.5683  1.8151  0.5812
 2286TIP3   OH228416   0.577   4.492   1.542  0.1190 -0.4024 -0.2385
 2286TIP3    H128417   0.550   4.455   1.458  1.3439  0.7185 -1.1694
 2286TIP3    H228418   0.669   4.468   1.551  0.5273  1.0920 -0.1505
 2287TIP3   OH228419   4.175   5.523   8.827 -0.0463 -0.1204 -0.1891
 2287TIP3    H128420   4.227   5.450   8.792  1.2083  1.3257 -1.5472
 2287TIP3    H228421   4.114   5.545   8.756  0.0617  0.5603 -0.0784
 2288TIP3   OH228422   4.745   0.336   8.312  0.8633 -0.2493  0.1596
 2288TIP3    H128423   4.676   0.351   8.377 -0.5996  0.8450 -1.5482
 2288TIP3    H228424   4.817   0.393   8.340  0.3711 -0.0186  0.9716
 2289TIP3   OH228425   6.453   2.734   8.040  0.1752  0.4827  0.4149
 2289TIP3    H128426   6.400   2.660   8.013  3.3933 -1.3435 -1.5754
 2289TIP3    H228427   6.499   2.703   8.119  1.5197  0.2818 -0.4127
 2290TIP3   OH228428   4.859   5.722   2.538 -0.1817 -0.5955 -0.0956
 2290TIP3    H128429   4.906   5.683   2.612 -0.2408  0.0742  0.3010
 2290TIP3    H228430   4.768   5.726   2.568 -0.2153 -0.3741 -0.2309
 2291TIP3   OH228431   4.820   3.384   3.437 -0.0159  0.3539  0.6804
 2291TIP3    H128432   4.771   3.465   3.454 -0.4845  0.0641  0.7008
 2291TIP3    H228433   4.765   3.315   3.474 -0.4522 -0.1700 -0.9098
 2292TIP3   OH228434   0.580   0.098   0.719 -0.4593  0.7314  0.0251
 2292TIP3    H128435   0.634   0.175   0.737  0.3609 -0.1306  1.3834
 2292TIP3    H228436   0.577   0.093   0.623 -0.9779  2.7288 -0.1123
 2293TIP3   OH228437   0.511   2.712   2.290  0.2522 -0.5056 -0.0045
 2293TIP3    H128438   0.483   2.701   2.199 -1.3745  1.7907  0.1539
 2293TIP3    H228439   0.501   2.625   2.328 -0.0868 -1.2748 -1.7448
 2294TIP3   OH228440   4.063   3.160   2.490 -0.3496  0.7108  0.0220
 2294TIP3    H128441   3.995   3.223   2.467 -1.8525 -0.5977  0.6756
 2294TIP3    H228442   4.124   3.162   2.417 -2.0428  0.6364 -1.4403
 2295TIP3   OH228443   5.978   6.048   1.856  0.2388 -0.3880 -0.5162
 2295TIP3    H128444   6.011   6.134   1.883  1.3997 -1.1291  0.5226
 2295TIP3    H228445   5.894   6.041   1.901 -0.0517  0.3526 -0.9165
 2296TIP3   OH228446   2.276   4.642   3.079  0.6725  0.5064  0.6456
 2296TIP3    H128447   2.291   4.567   3.136  0.2444  1.1267  1.5856
 2296TIP3    H228448   2.274   4.718   3.137 -0.0387  1.1280 -0.1560
 2297TIP3   OH228449   4.100   5.529   8.558  0.1058  0.0684 -0.1469
 2297TIP3    H128450   4.008   5.552   8.567 -0.1800 -0.7895 -0.6865
 2297TIP3    H228451   4.140   5.603   8.513 -0.3068  0.4724  0.1503
 2298TIP3   OH228452   1.993   3.281   7.900 -0.4503  0.1632 -0.2089
 2298TIP3    H128453   2.041   3.340   7.957 -0.3369 -0.2416  0.1143
 2298TIP3    H228454   1.901   3.293   7.924 -0.3733 -0.2828  0.3224
 2299TIP3   OH228455   4.715   0.756   8.361 -0.2389  0.5349  0.2703
 2299TIP3    H128456   4.809   0.772   8.365 -0.1415  0.6527 -1.5693
 2299TIP3    H228457   4.680   0.835   8.318 -0.9961 -0.0852 -0.2681
 2300TIP3   OH228458   3.631   4.135   8.619  0.1397 -0.0945 -0.3295
 2300TIP3    H128459   3.636   4.197   8.547 -0.7627 -0.2070 -0.5025
 2300TIP3    H228460   3.577   4.179   8.685  0.5163 -0.2032  0.0580
 2301TIP3   OH228461   0.192   6.452   7.459  0.3416 -0.0452  0.1708
 2301TIP3    H128462   0.260   6.419   7.400 -0.2956  2.0003 -1.8851
 2301TIP3    H228463   0.240   6.504   7.524  0.8780 -0.1342 -0.1462
 2302TIP3   OH228464   3.691   0.024   1.420 -0.5142  0.1126 -0.0608
 2302TIP3    H128465   3.631   0.049   1.490 -1.3610 -0.4022 -0.5756
 2302TIP3    H228466   3.703   0.104   1.369 -0.2950  0.3647  0.3816
 2303TIP3   OH228467   6.764   6.163   8.504  0.6561  0.0930  0.6925
 2303TIP3    H128468   6.823   6.117   8.563  0.5213 -1.1872 -0.1374
 2303TIP3    H228469   6.821   6.218   8.451  1.4450 -2.6715 -1.5366
 2304TIP3   OH228470   6.488   5.919   8.454  0.1301 -0.4751  0.2237
 2304TIP3    H128471   6.393   5.928   8.455  0.0907 -0.8331  1.4367
 2304TIP3    H228472   6.511   5.896   8.544  1.2943 -1.1769 -0.2245
 2305TIP3   OH228473   6.274   3.938   2.765  0.0941  0.2388 -0.1057
 2305TIP3    H128474   6.304   3.991   2.692  0.0905  0.9259  0.3802
 2305TIP3    H228475   6.330   3.964   2.839 -0.0025 -0.3259  0.1758
 2306TIP3   OH228476   4.687   1.987   8.118  0.4085 -0.3040  0.8621
 2306TIP3    H128477   4.716   2.077   8.134  1.1528 -0.1351 -1.0637
 2306TIP3    H228478   4.651   1.958   8.201 -0.7339  2.0871  1.2999
 2307TIP3   OH228479   2.887   0.015   8.103  0.8123  0.6249 -0.1228
 2307TIP3    H128480   2.796   0.003   8.076  0.4105 -0.7945  1.6632
 2307TIP3    H228481   2.926  -0.073   8.098  2.3842  1.3351 -1.6801
 2308TIP3   OH228482   2.143   2.510   2.246 -0.3501 -0.6894  0.3404
 2308TIP3    H128483   2.113   2.593   2.281  0.4356  0.3859 -1.4198
 2308TIP3    H228484   2.238   2.517   2.243 -0.2763 -1.5852  0.0074
 2309TIP3   OH228485   4.850   2.806   0.031  0.7546 -0.0744  0.5814
 2309TIP3    H128486   4.759   2.793   0.058  0.2206 -0.9785 -1.4549
 2309TIP3    H228487   4.884   2.717   0.020  1.4883  0.2593  0.0970
 2310TIP3   OH228488   1.754   2.053   1.714  0.0929 -0.3346 -0.3802
 2310TIP3    H128489   1.779   2.091   1.798  0.5923  2.4806 -1.6898
 2310TIP3    H228490   1.663   2.027   1.725 -0.4255  1.7222  0.5166
 2311TIP3   OH228491   3.050   4.644   2.289 -0.1899 -0.5527  0.4123
 2311TIP3    H128492   3.100   4.562   2.288 -1.6772 -1.5723  2.0585
 2311TIP3    H228493   2.997   4.638   2.369 -1.5789  1.2716 -0.3089
 2312TIP3   OH228494   1.195   0.729   2.472 -0.2478 -0.2216 -0.3498
 2312TIP3    H128495   1.232   0.794   2.531  0.2638 -0.4395 -0.4291
 2312TIP3    H228496   1.219   0.645   2.511 -0.8299 -0.3676 -0.2932
 2313TIP3   OH228497   2.186   3.120   7.812 -0.2807  0.5366 -0.0819
 2313TIP3    H128498   2.114   3.183   7.822  0.8374  1.7729  0.4347
 2313TIP3    H228499   2.142   3.036   7.802 -1.8512  1.4811 -1.6888
 2314TIP3   OH228500   6.325   2.944   1.460  0.1776 -0.0411  0.0324
 2314TIP3    H128501   6.294   3.002   1.391  1.3537  0.1842 -0.3328
 2314TIP3    H228502   6.340   3.001   1.535  0.4922 -0.0101 -0.0521
 2315TIP3   OH228503   3.211   4.408   0.401  0.0894  0.2077  1.0673
 2315TIP3    H128504   3.273   4.361   0.345  0.6066 -0.0255  1.8185
 2315TIP3    H228505   3.227   4.500   0.384 -1.0013  0.1544 -0.4974
 2316TIP3   OH228506   0.734   4.484   7.961 -0.3572  0.4876  0.5288
 2316TIP3    H128507   0.679   4.512   7.888 -0.3470  1.8021  0.9997
 2316TIP3    H228508   0.805   4.549   7.964 -1.0114  1.1820  2.4594
 2317TIP3   OH228509   0.890   2.592   8.032  0.2585 -0.5434 -0.1506
 2317TIP3    H128510   0.820   2.531   8.053 -0.9793  1.2693  1.3209
 2317TIP3    H228511   0.922   2.622   8.117  1.6464 -0.0140 -0.8231
 2318TIP3   OH228512   6.319   4.699   7.907 -0.0517  0.2337 -0.2426
 2318TIP3    H128513   6.384   4.766   7.930 -0.9298  0.7657  0.7786
 2318TIP3    H228514   6.360   4.648   7.837  2.0132 -0.2959  1.2852
 2319TIP3   OH228515   6.201   5.146   0.257 -0.1328  0.3220  0.1362
 2319TIP3    H128516   6.141   5.218   0.236 -0.9046 -0.5819 -0.8979
 2319TIP3    H228517   6.190   5.132   0.351 -1.7494  0.0182 -0.0657
 2320TIP3   OH228518   3.139   5.573   3.406 -0.4247 -0.3513  0.2604
 2320TIP3    H128519   3.141   5.553   3.312  0.9879 -1.7548  0.5442
 2320TIP3    H228520   3.046   5.582   3.427 -0.8869 -2.1004 -0.8796
 2321TIP3   OH228521   1.751   2.291   0.038  0.0765  0.5400 -0.2675
 2321TIP3    H128522   1.759   2.243   0.121  0.2508  0.0161 -0.5833
 2321TIP3    H228523   1.839   2.324   0.021 -0.2341  1.7978  0.4264
 2322TIP3   OH228524   2.396   0.857   8.716 -0.0686  0.0582  0.0767
 2322TIP3    H128525   2.386   0.916   8.642  1.9907 -2.6734 -2.5872
 2322TIP3    H228526   2.477   0.884   8.759  1.0187 -0.9013 -1.3047
 2323TIP3   OH228527   2.599   5.708   1.225 -0.0930  0.2336  0.0422
 2323TIP3    H128528   2.567   5.648   1.157  0.8097 -0.9734  0.6379
 2323TIP3    H228529   2.687   5.676   1.244 -0.7292 -0.2013  2.6122
 2324TIP3   OH228530   6.129   5.418   0.264 -0.4515  0.2701 -0.1559
 2324TIP3    H128531   6.097   5.502   0.230 -0.0697  0.5761  0.2368
 2324TIP3    H228532   6.145   5.434   0.357 -2.3381 -0.7995  0.4002
 2325TIP3   OH228533   6.419   1.681   2.160  0.1780  0.3247 -0.4203
 2325TIP3    H128534   6.497   1.708   2.111  0.4330  1.3401  0.5350
 2325TIP3    H228535   6.359   1.650   2.092  1.6455 -1.1395 -1.1338
 2326TIP3   OH228536   1.347   0.236   2.333 -0.7785 -0.1596 -0.4002
 2326TIP3    H128537   1.307   0.166   2.384 -2.2566  0.4820 -0.6282
 2326TIP3    H228538   1.354   0.309   2.395  1.0363 -0.5591 -0.0743
 2327TIP3   OH228539   4.043   0.067   8.753 -0.5015 -0.6131  0.5156
 2327TIP3    H128540   4.094   0.051   8.832  0.3915 -0.4320 -0.0135
 2327TIP3    H228541   4.060  -0.009   8.698 -1.5393 -0.9965  0.6902
 2328TIP3   OH228542   4.226   1.564   3.685  0.1738  0.0518 -0.2971
 2328TIP3    H128543   4.164   1.505   3.729 -0.9986  2.3865  1.4098
 2328TIP3    H228544   4.311   1.540   3.723 -0.1854 -0.8608 -0.0202
 2329TIP3   OH228545   1.022   0.599   1.042  0.2736 -0.5933  0.0967
 2329TIP3    H128546   0.943   0.633   1.084  0.3224  0.7815 -0.8624
 2329TIP3    H228547   1.030   0.510   1.075 -1.6291 -0.7349  0.2848
 2330TIP3   OH228548   3.979   3.002   2.668  0.4729 -0.3206 -0.3258
 2330TIP3    H128549   4.044   3.020   2.736  1.3716  0.2032 -1.2961
 2330TIP3    H228550   4.017   3.038   2.588 -1.6597  1.4248 -0.6672
 2331TIP3   OH228551   5.011   3.357   2.008  0.1958  0.6835  0.7329
 2331TIP3    H128552   5.007   3.442   2.052  0.2444  0.6260  0.8489
 2331TIP3    H228553   5.028   3.378   1.916 -2.7821  0.9755  0.1443
 2332TIP3   OH228554   6.646   6.291   1.738  0.6370  0.1093  0.4555
 2332TIP3    H128555   6.682   6.318   1.654 -0.1386 -1.7854 -0.5638
 2332TIP3    H228556   6.562   6.335   1.744  0.2271 -0.5510 -0.2832
 2333TIP3   OH228557   1.198   1.242   1.402 -0.0763  0.0076 -0.2428
 2333TIP3    H128558   1.249   1.161   1.409  4.4050  2.4848 -0.7923
 2333TIP3    H228559   1.168   1.243   1.311 -1.6029 -1.6366  0.1696
 2334TIP3   OH228560   2.198   4.554   1.493  0.0972  0.0397  0.0095
 2334TIP3    H128561   2.175   4.465   1.466  0.0836  0.3666 -1.1095
 2334TIP3    H228562   2.125   4.608   1.462  1.2645  0.7820 -1.6344
 2335TIP3   OH228563   4.723   3.709   2.732  0.1333 -0.5648 -0.6164
 2335TIP3    H128564   4.685   3.668   2.654  1.5713 -2.7788 -0.2439
 2335TIP3    H228565   4.793   3.765   2.698  0.4417 -1.1524 -0.9620
 2336TIP3   OH228566   2.221   6.237   2.177 -0.3308 -0.0416 -0.3925
 2336TIP3    H128567   2.287   6.299   2.146  2.0725 -1.9148  0.6791
 2336TIP3    H228568   2.190   6.274   2.259  0.6953  0.0034 -0.0202
 2337TIP3   OH228569   0.508   6.074   0.432  0.3006 -0.4044  0.4025
 2337TIP3    H128570   0.424   6.085   0.476 -0.6595  0.4160 -1.5341
 2337TIP3    H228571   0.544   6.163   0.426  0.2723 -0.4573 -0.6954
 2338TIP3   OH228572   0.878   4.275   0.021  0.0625  0.3099 -0.5359
 2338TIP3    H128573   0.877   4.231   0.106 -1.1636 -1.9900 -1.6596
 2338TIP3    H228574   0.808   4.340   0.026  0.1806  0.3798  0.2871
 2339TIP3   OH228575   2.459   2.559   7.950  0.7062  0.2324  0.4865
 2339TIP3    H128576   2.455   2.654   7.961  1.6128  0.1578  1.7712
 2339TIP3    H228577   2.441   2.544   7.858  0.1860  1.6274  0.3422
 2340TIP3   OH228578   5.453   4.671   2.822  0.2764  0.4718  0.1390
 2340TIP3    H128579   5.475   4.596   2.876 -0.7633  0.1952  0.1891
 2340TIP3    H228580   5.457   4.746   2.882  0.3120  0.3267  0.3178
 2341TIP3   OH228581   5.587   6.491   2.745 -0.4136 -0.8639 -0.0898
 2341TIP3    H128582   5.579   6.491   2.840 -0.7318  0.5086 -0.1016
 2341TIP3    H228583   5.672   6.451   2.728 -0.4440 -1.3014  0.7557
 2342TIP3   OH228584   2.601   5.458   7.156  0.1410 -0.0644 -0.6714
 2342TIP3    H128585   2.607   5.537   7.209  0.4656 -0.1184 -0.6210
 2342TIP3    H228586   2.664   5.398   7.196 -2.6299 -1.6993  1.5577
 2343TIP3   OH228587   0.167   5.491   0.904 -0.3332 -0.1591  0.5903
 2343TIP3    H128588   0.227   5.425   0.938  1.1250  1.3912  1.1921
 2343TIP3    H228589   0.093   5.490   0.966  0.5532  0.0441  1.6888
 2344TIP3   OH228590   4.470   5.010   0.622  0.2188 -0.2013 -0.2803
 2344TIP3    H128591   4.394   4.986   0.570 -1.5163  0.9999  1.5248
 2344TIP3    H228592   4.513   5.078   0.571 -1.7175  1.3037 -0.0351
 2345TIP3   OH228593   6.685   4.821   0.150 -0.3835 -0.4282 -0.0296
 2345TIP3    H128594   6.659   4.898   0.202 -1.9146 -0.8141 -0.1671
 2345TIP3    H228595   6.761   4.851   0.100 -0.7026  0.8808  0.2118
 2346TIP3   OH228596   5.932   4.856   0.841 -0.2705 -0.4071  0.1453
 2346TIP3    H128597   5.936   4.909   0.921  1.9871 -0.6807  0.2699
 2346TIP3    H228598   5.900   4.771   0.871  1.9979 -0.9926  1.1094
 2347TIP3   OH228599   5.531   1.597   8.843 -0.0089  0.4829  0.1338
 2347TIP3    H128600   5.495   1.508   8.840 -0.1257  0.5493 -0.5329
 2347TIP3    H228601   5.495   1.635   8.923 -1.3719  0.5316 -0.4798
 2348TIP3   OH228602   3.157   3.154   7.575 -0.0528 -0.3473 -0.0160
 2348TIP3    H128603   3.121   3.186   7.492  4.2816  0.6939 -1.7218
 2348TIP3    H228604   3.146   3.227   7.636  0.8969  0.6826 -1.0561
 2349TIP3   OH228605   0.359   0.816   8.370 -0.3898  0.3202  0.0759
 2349TIP3    H128606   0.331   0.753   8.304  0.6175 -0.5582  0.4673
 2349TIP3    H228607   0.281   0.831   8.423 -1.4140  1.5285 -1.6337
 2350TIP3   OH228608   2.038   6.114   1.557  0.2585  0.0152 -0.4458
 2350TIP3    H128609   2.128   6.092   1.532  0.8013  2.0567 -0.4766
 2350TIP3    H228610   1.985   6.087   1.482  1.1483  0.7925 -1.3850
 2351TIP3   OH228611   6.016   4.860   3.743  0.2909  0.1528 -0.5793
 2351TIP3    H128612   5.953   4.911   3.693  0.3818  0.3017 -0.5435
 2351TIP3    H228613   6.076   4.826   3.677  1.9308  2.4249 -0.4091
 2352TIP3   OH228614   5.266   3.089   0.772  0.1053  0.0143 -0.1137
 2352TIP3    H128615   5.252   3.002   0.733 -0.3846  0.4590 -0.9620
 2352TIP3    H228616   5.354   3.084   0.810  0.2307 -0.7381 -0.4762
 2353TIP3   OH228617   5.811   1.049   8.888 -0.5524 -0.5267  0.1028
 2353TIP3    H128618   5.907   1.059   8.883 -0.6103 -0.0861 -0.1716
 2353TIP3    H228619   5.796   1.011   8.975 -0.2134  0.5001  0.6262
 2354TIP3   OH228620   2.128   3.005   0.745  0.2261  0.4774 -0.5690
 2354TIP3    H128621   2.099   2.928   0.794 -2.0503  2.3211  1.2009
 2354TIP3    H228622   2.065   3.013   0.674  0.3629  0.7716 -0.6576
 2355TIP3   OH228623   0.540   0.079   2.411 -0.0460 -0.6548  0.1289
 2355TIP3    H128624   0.524   0.060   2.504 -0.2236 -2.0963 -0.1780
 2355TIP3    H228625   0.471   0.141   2.387 -1.3082 -1.8816  0.4477
 2356TIP3   OH228626   5.484   0.185   8.224 -0.0538 -0.0543 -0.1657
 2356TIP3    H128627   5.552   0.124   8.253 -2.6669 -3.1954 -0.1142
 2356TIP3    H228628   5.487   0.181   8.129  1.2176  1.6232 -0.2534
 2357TIP3   OH228629   2.079   3.280   0.343 -0.2356 -0.3010  0.3758
 2357TIP3    H128630   2.033   3.333   0.277 -0.5741 -1.9150 -0.7641
 2357TIP3    H228631   2.128   3.215   0.291 -0.1599 -1.3500  1.7072
 2358TIP3   OH228632   1.852   2.718   0.110  0.1286 -0.2852 -0.1589
 2358TIP3    H128633   1.809   2.676   0.035  0.1823  0.8731 -0.8529
 2358TIP3    H228634   1.922   2.658   0.133 -0.5002 -1.1397 -0.3963
 2359TIP3   OH228635   3.493   0.366   8.368  0.4941 -0.1133 -0.1628
 2359TIP3    H128636   3.465   0.382   8.458  1.7762 -0.4657  0.3251
 2359TIP3    H228637   3.588   0.376   8.371  0.4812  0.6761 -1.6564
 2360TIP3   OH228638   4.895   4.492   2.819 -0.0410 -0.6146 -0.2689
 2360TIP3    H128639   4.825   4.555   2.801  0.5975 -0.3654 -2.0501
 2360TIP3    H228640   4.974   4.546   2.829  0.0221 -0.9298  1.2627
 2361TIP3   OH228641   0.520   0.982   0.482 -0.1018  0.6899  0.0146
 2361TIP3    H128642   0.493   1.073   0.491 -2.8972 -0.0343 -0.1928
 2361TIP3    H228643   0.439   0.933   0.471  1.4036 -1.6447 -1.8147
 2362TIP3   OH228644   6.418   1.249   1.866  0.1795 -0.3601 -0.1806
 2362TIP3    H128645   6.466   1.261   1.947  0.8804 -1.1443 -0.4614
 2362TIP3    H228646   6.461   1.308   1.804 -0.4526  0.3506  0.0519
 2363TIP3   OH228647   0.599   1.618   0.226  0.5160  0.7500 -0.1745
 2363TIP3    H128648   0.619   1.699   0.178  0.3397  0.3535 -0.9368
 2363TIP3    H228649   0.609   1.642   0.318  2.3797  1.1614 -0.4248
 2364TIP3   OH228650   4.696   2.229   1.482 -0.4209  0.1555 -0.3391
 2364TIP3    H128651   4.712   2.263   1.570  1.5018 -0.5724 -0.3675
 2364TIP3    H228652   4.673   2.307   1.430  1.1625  1.0271  0.2101
 2365TIP3   OH228653   5.132   4.011   3.175 -0.1671 -0.1651 -0.0207
 2365TIP3    H128654   5.203   4.054   3.128 -0.1337  0.7384  0.8122
 2365TIP3    H228655   5.171   3.982   3.257 -0.2595 -1.5812 -0.4510
 2366TIP3   OH228656   5.691   3.473   1.871 -0.2691 -0.1739 -0.2009
 2366TIP3    H128657   5.753   3.524   1.923  0.7113 -1.2430 -0.2557
 2366TIP3    H228658   5.610   3.475   1.921  0.3885 -0.4221  0.9230
 2367TIP3   OH228659   5.314   4.647   0.493 -0.7594 -0.0619 -0.7179
 2367TIP3    H128660   5.380   4.666   0.427  0.4076 -1.3823  0.0138
 2367TIP3    H228661   5.254   4.722   0.490  1.3884  1.7545 -0.5950
 2368TIP3   OH228662   1.693   4.667   8.654 -0.2093  0.2104  0.7419
 2368TIP3    H128663   1.768   4.625   8.696  1.2501  1.2909 -0.6351
 2368TIP3    H228664   1.617   4.635   8.702  0.6654 -4.2420 -0.3627
 2369TIP3   OH228665   1.231   4.969   2.224 -0.4468 -0.1488  0.4274
 2369TIP3    H128666   1.266   4.918   2.297  0.2087  1.6131  1.3964
 2369TIP3    H228667   1.184   5.041   2.266 -0.2340  0.7901 -0.8858
 2370TIP3   OH228668   0.868   3.044   8.127  0.0716 -0.6869 -0.5965
 2370TIP3    H128669   0.809   3.006   8.063  0.9983 -0.2896 -1.7196
 2370TIP3    H228670   0.815   3.109   8.174 -0.5466 -0.7977 -1.1400
 2371TIP3   OH228671   5.013   2.494   7.846 -0.2685  0.0454  0.0648
 2371TIP3    H128672   4.932   2.456   7.880 -0.8085  0.5556 -0.6314
 2371TIP3    H228673   5.003   2.493   7.751  0.8420 -0.5167 -0.0681
 2372TIP3   OH228674   4.372   1.356   1.532  0.0570  0.6339  0.3050
 2372TIP3    H128675   4.303   1.382   1.593 -1.5940  0.3224 -1.3353
 2372TIP3    H228676   4.325   1.320   1.457  2.0526 -0.3001 -0.5698
 2373TIP3   OH228677   4.437   2.156   1.284  0.2985 -0.2804 -0.5634
 2373TIP3    H128678   4.486   2.178   1.363 -1.0124 -0.2676  0.2841
 2373TIP3    H228679   4.377   2.230   1.271  1.2252  0.2432 -2.2271
 2374TIP3   OH228680   4.941   1.201   8.599 -0.5825 -0.0085  0.3643
 2374TIP3    H128681   4.899   1.285   8.580  2.8595  2.1373  1.2723
 2374TIP3    H228682   4.969   1.209   8.691  0.4397 -1.8484  0.2603
 2375TIP3   OH228683   3.279   5.310   2.193  0.5131 -0.2765 -0.2437
 2375TIP3    H128684   3.313   5.312   2.103 -1.7994 -0.8987 -1.2057
 2375TIP3    H228685   3.186   5.328   2.184  0.4284  0.8890  2.2012
 2376TIP3   OH228686   0.598   3.865   2.467  0.1143  0.3430  0.2175
 2376TIP3    H128687   0.684   3.891   2.500 -0.2253  2.5135 -0.4615
 2376TIP3    H228688   0.553   3.947   2.449 -1.9680 -0.7416  0.1370
 2377TIP3   OH228689   6.294   1.481   2.035  0.0439  0.5220  0.0883
 2377TIP3    H128690   6.238   1.446   1.966  1.8316 -1.4751 -0.4460
 2377TIP3    H228691   6.303   1.409   2.097  0.2364  1.5644  1.3205
 2378TIP3   OH228692   1.472   2.273   1.286  0.2381 -0.4422  0.3331
 2378TIP3    H128693   1.380   2.251   1.270  0.0077 -0.3599  1.4512
 2378TIP3    H228694   1.521   2.205   1.241 -0.3583 -0.2630 -0.6083
 2379TIP3   OH228695   1.353   3.055   1.117  0.3618  0.0167 -0.3281
 2379TIP3    H128696   1.369   2.974   1.068  0.0805 -0.5690  0.5292
 2379TIP3    H228697   1.440   3.082   1.148  0.1522 -1.6087  1.9046
 2380TIP3   OH228698   3.255   4.677   0.410  0.1015 -0.1923 -0.1148
 2380TIP3    H128699   3.205   4.689   0.491  0.5425  0.8091  0.0225
 2380TIP3    H228700   3.225   4.749   0.353 -0.1640 -0.8521 -0.8287
 2381TIP3   OH228701   6.225   4.069   1.354  0.4557 -0.2549  0.0720
 2381TIP3    H128702   6.158   4.059   1.286  0.2609 -0.5185  0.2966
 2381TIP3    H228703   6.194   4.012   1.425  0.9837 -0.4733  0.1271
 2382TIP3   OH228704   2.093   1.078   0.976  0.4210 -0.2930  0.2447
 2382TIP3    H128705   2.131   1.015   0.916  0.7069  1.8754 -1.9939
 2382TIP3    H228706   2.145   1.069   1.056  1.9067 -1.3182 -0.7894
 2383TIP3   OH228707   0.540   5.759   1.670  0.0073  0.2114  0.1167
 2383TIP3    H128708   0.538   5.825   1.601  0.5902  0.4640  0.3388
 2383TIP3    H228709   0.488   5.796   1.741  0.3557  0.4462  0.2512
 2384TIP3   OH228710   2.444   3.178   0.542  0.5962 -0.3874  0.4802
 2384TIP3    H128711   2.533   3.159   0.570  0.4134 -0.6721  0.8837
 2384TIP3    H228712   2.389   3.125   0.601  0.1988 -0.8479 -0.2921
 2385TIP3   OH228713   0.150   4.629   7.814 -0.1984 -0.2400 -0.0113
 2385TIP3    H128714   0.149   4.678   7.732  1.2962 -1.3801 -0.7469
 2385TIP3    H228715   0.202   4.683   7.874 -0.0277 -0.1022 -0.2807
 2386TIP3   OH228716   6.305   4.296   7.592  0.1773  0.4059 -0.4602
 2386TIP3    H128717   6.358   4.220   7.566  0.4996  0.6497 -0.5202
 2386TIP3    H228718   6.367   4.356   7.632  0.1587  1.1808 -1.5510
 2387TIP3   OH228719   5.563   0.722   0.703  0.2735 -0.3538  0.7021
 2387TIP3    H128720   5.559   0.745   0.796  0.5256  1.0064  0.4064
 2387TIP3    H228721   5.656   0.722   0.683  0.1909 -0.0072  0.3127
 2388TIP3   OH228722   2.967   1.833   1.287 -0.3390 -0.2732  0.1541
 2388TIP3    H128723   2.990   1.912   1.237 -1.3292 -0.0250  0.0695
 2388TIP3    H228724   2.954   1.864   1.376 -2.3905 -0.0090 -0.1910
 2389TIP3   OH228725   1.049   2.787   0.787 -0.1066  0.0137 -0.4986
 2389TIP3    H128726   1.042   2.697   0.820 -1.6455 -0.0283 -0.8454
 2389TIP3    H228727   1.142   2.798   0.765  0.5201 -0.7496  1.5456
 2390TIP3   OH228728   2.085   4.853   2.367  0.0180 -0.2025 -0.1147
 2390TIP3    H128729   2.144   4.870   2.440 -1.5814 -0.8301  1.4131
 2390TIP3    H228730   2.070   4.759   2.368  0.8420 -0.3972 -2.0155
 2391TIP3   OH228731   3.096   4.943   0.695  0.1222 -0.1360 -0.4271
 2391TIP3    H128732   3.148   5.019   0.722  0.4836 -0.0427 -1.3427
 2391TIP3    H228733   3.029   4.980   0.636 -1.4718 -0.1430  1.2896
 2392TIP3   OH228734   4.582   4.387   2.658  0.3108  0.5737 -0.1700
 2392TIP3    H128735   4.513   4.453   2.656 -1.2381 -0.9595 -1.2938
 2392TIP3    H228736   4.573   4.346   2.744  0.6597  1.2242  0.1734
 2393TIP3   OH228737   3.407   2.770   1.264  0.4366 -0.2829  0.0715
 2393TIP3    H128738   3.354   2.714   1.320  0.5311 -0.3213  0.1225
 2393TIP3    H228739   3.479   2.798   1.320 -0.4114  1.1103  0.5199
 2394TIP3   OH228740   0.022   4.976   1.327  0.2967 -0.4630  0.0235
 2394TIP3    H128741   0.107   4.991   1.286  0.8657 -0.6975  1.0978
 2394TIP3    H228742   0.029   4.890   1.368 -1.0903 -1.3240 -1.4014
 2395TIP3   OH228743   4.484   3.469   1.238  0.0743  0.0815 -0.1090
 2395TIP3    H128744   4.400   3.472   1.192  0.1121  0.7671 -0.1477
 2395TIP3    H228745   4.474   3.399   1.302 -0.7816  0.6240  0.3778
 2396TIP3   OH228746   3.899   1.546   8.197  0.0448  0.1082 -0.0430
 2396TIP3    H128747   3.826   1.485   8.185  0.2801 -0.1162 -0.3295
 2396TIP3    H228748   3.924   1.534   8.289 -0.6473  0.6011  0.2228
 2397TIP3   OH228749   6.166   5.308   7.083 -0.1368  0.4214 -0.2920
 2397TIP3    H128750   6.218   5.228   7.080 -0.2257  0.2564  1.7449
 2397TIP3    H228751   6.203   5.359   7.155 -0.3606  2.0460 -1.2765
 2398TIP3   OH228752   1.002   5.680   7.899  0.6101  0.3547 -0.2591
 2398TIP3    H128753   0.947   5.653   7.826 -1.5078 -1.0685  1.7304
 2398TIP3    H228754   1.081   5.626   7.891 -0.6467 -1.5766 -0.1764
 2399TIP3   OH228755   3.562   5.186   3.056  0.3768  0.4558  0.6637
 2399TIP3    H128756   3.643   5.165   3.101 -0.0157  0.6346  1.4672
 2399TIP3    H228757   3.571   5.146   2.969  0.5743 -1.0835  1.3712
 2400TIP3   OH228758   3.587   1.034   8.854  0.5876  0.1286  0.2137
 2400TIP3    H128759   3.607   1.127   8.864  0.0095  0.4734 -1.4525
 2400TIP3    H228760   3.491   1.030   8.855  0.5646 -0.2547 -0.9109
 2401TIP3   OH228761   6.372   2.462   1.026 -0.9755 -0.0736  0.2121
 2401TIP3    H128762   6.316   2.386   1.040  1.3554 -1.5474  2.4169
 2401TIP3    H228763   6.394   2.458   0.933 -0.2844 -2.6683  0.4004
 2402TIP3   OH228764   5.289   1.162   8.129  0.1684  0.4301 -0.0804
 2402TIP3    H128765   5.290   1.115   8.046 -1.2660 -0.2359  0.2468
 2402TIP3    H228766   5.218   1.121   8.179 -2.2827  3.9537 -0.3598
 2403TIP3   OH228767   0.212   4.448   1.454  0.5114 -0.4384 -0.5699
 2403TIP3    H128768   0.192   4.409   1.539  2.2505 -1.8992 -0.7442
 2403TIP3    H228769   0.302   4.419   1.436  0.5311  0.6487 -2.4558
 2404TIP3   OH228770   5.739   5.364   1.237 -0.4203  0.2906  0.3988
 2404TIP3    H128771   5.685   5.435   1.272  0.7028  0.9981  0.7454
 2404TIP3    H228772   5.694   5.337   1.157 -0.1023  2.4246 -0.5592
 2405TIP3   OH228773   4.497   5.183   2.055  0.2800  0.2202 -0.0639
 2405TIP3    H128774   4.485   5.259   2.112  1.1643  1.5584 -1.5877
 2405TIP3    H228775   4.578   5.201   2.007 -0.3239 -0.9540 -1.6046
 2406TIP3   OH228776   1.546   4.347   1.439 -0.0360 -0.2633  0.4080
 2406TIP3    H128777   1.526   4.306   1.523 -1.1954  1.3089  0.9585
 2406TIP3    H228778   1.581   4.433   1.462  1.6240 -0.5813 -0.7123
 2407TIP3   OH228779   2.860   1.631   0.671 -0.4965  0.0320  0.1281
 2407TIP3    H128780   2.928   1.590   0.724  0.1424 -0.0424 -0.7230
 2407TIP3    H228781   2.791   1.565   0.666 -0.7872  0.2275  1.2597
 2408TIP3   OH228782   5.036   5.936   2.650 -0.3978 -0.1999  0.2129
 2408TIP3    H128783   4.970   5.896   2.707 -1.1642  0.4801 -0.1681
 2408TIP3    H228784   5.004   5.920   2.562 -0.9024  1.4742  0.0497
 2409TIP3   OH228785   1.577   2.091   2.977  0.0183  0.2293 -0.1920
 2409TIP3    H128786   1.536   2.176   2.961  1.6368  1.1047  0.1572
 2409TIP3    H228787   1.663   2.112   3.014 -0.5541 -1.5881  2.4362
 2410TIP3   OH228788   3.951   3.404   8.849 -0.1343  0.0560  1.0089
 2410TIP3    H128789   3.994   3.389   8.933  1.8954  1.6210  0.3472
 2410TIP3    H228790   3.920   3.494   8.853  0.6318  0.4033 -0.1229
 2411TIP3   OH228791   0.672   5.388   0.248 -0.4322  0.0145 -0.6077
 2411TIP3    H128792   0.714   5.399   0.163 -1.3074 -1.5445 -1.2760
 2411TIP3    H228793   0.690   5.297   0.272 -1.3106  0.0613  0.2665
 2412TIP3   OH228794   2.736   1.707   1.973  0.0624  0.2576  0.1317
 2412TIP3    H128795   2.818   1.741   1.937 -0.2779  1.6143  0.5899
 2412TIP3    H228796   2.690   1.670   1.898  0.8717 -0.0918 -0.2112
 2413TIP3   OH228797   2.253   0.493   1.971 -0.0619  0.2874 -0.5755
 2413TIP3    H128798   2.276   0.494   1.878  2.5294  0.0162 -0.0317
 2413TIP3    H228799   2.191   0.421   1.980 -0.4050  0.3670 -2.0862
 2414TIP3   OH228800   4.235   6.563   8.214 -0.1233  0.9030  0.2715
 2414TIP3    H128801   4.200   6.606   8.136 -0.3381  0.7369  0.2771
 2414TIP3    H228802   4.330   6.573   8.205 -0.1684  1.3956  0.2839
 2415TIP3   OH228803   6.515   5.483   1.664 -0.0267 -0.3042 -0.4399
 2415TIP3    H128804   6.470   5.534   1.732  1.0813 -0.0354  0.1102
 2415TIP3    H228805   6.460   5.406   1.653 -0.1991 -0.3973  0.8369
 2416TIP3   OH228806   3.137   2.487   1.751 -0.6445  0.3525 -0.3018
 2416TIP3    H128807   3.146   2.408   1.697  0.9968 -0.5785  1.2426
 2416TIP3    H228808   3.204   2.547   1.717  1.8635 -1.0108  1.8350
 2417TIP3   OH228809   5.779   4.581   8.367 -0.5514 -0.0424 -1.0695
 2417TIP3    H128810   5.809   4.671   8.362 -2.7101  0.9295  1.4267
 2417TIP3    H228811   5.854   4.532   8.400  0.3345  0.9723 -1.5311
 2418TIP3   OH228812   0.991   2.178   8.226 -0.2148 -0.4465  0.1037
 2418TIP3    H128813   0.947   2.255   8.262 -0.4954 -0.3393 -0.4673
 2418TIP3    H228814   1.006   2.199   8.134  2.7031  0.2759  0.6655
 2419TIP3   OH228815   5.857   6.294   7.494 -0.4750 -0.4259 -0.1261
 2419TIP3    H128816   5.870   6.324   7.404  1.0676 -0.0478  0.2057
 2419TIP3    H228817   5.767   6.261   7.495 -0.6368 -0.1073 -1.7074
 2420TIP3   OH228818   3.925   1.106   2.615  0.2254 -0.0850 -0.7483
 2420TIP3    H128819   3.929   1.197   2.643 -0.3816 -0.0939 -0.6215
 2420TIP3    H228820   3.969   1.104   2.530  0.0659  0.3616 -0.8426
 2421TIP3   OH228821   5.480   3.342   8.385  0.3109 -0.8750  0.0922
 2421TIP3    H128822   5.523   3.336   8.300  1.1678  4.4269 -0.1588
 2421TIP3    H228823   5.390   3.366   8.365  0.1216 -1.0458  0.6970
 2422TIP3   OH228824   4.909   3.281   0.710 -0.1145 -0.0380  0.1278
 2422TIP3    H128825   4.822   3.296   0.746  0.0752  2.7247 -0.2876
 2422TIP3    H228826   4.893   3.257   0.618 -0.4451 -0.6177  0.3337
 2423TIP3   OH228827   0.250   4.539   0.689  0.2421  0.1018 -0.1457
 2423TIP3    H128828   0.164   4.510   0.659 -0.1746  0.1597  0.9430
 2423TIP3    H228829   0.233   4.583   0.772  1.2852  0.4348 -0.0892
 2424TIP3   OH228830   2.855   1.546   3.063 -0.1538 -0.1021  0.0403
 2424TIP3    H128831   2.850   1.587   2.977  0.6420 -0.3986 -0.1562
 2424TIP3    H228832   2.772   1.500   3.073  0.1032 -0.7992 -0.9472
 2425TIP3   OH228833   4.692   5.711   2.186 -0.4459 -0.5500  1.0840
 2425TIP3    H128834   4.620   5.763   2.220 -1.5746 -0.6379 -1.0209
 2425TIP3    H228835   4.651   5.645   2.130  1.2230 -0.8474  0.1164
 2426TIP3   OH228836   2.202   1.778   0.173  0.3156  0.2759 -0.5015
 2426TIP3    H128837   2.212   1.717   0.246  1.1672  0.4366 -0.4637
 2426TIP3    H228838   2.241   1.732   0.098 -1.2525 -0.2013 -1.0485
 2427TIP3   OH228839   5.869   0.063   1.540 -0.1941  0.5025 -0.1433
 2427TIP3    H128840   5.792   0.081   1.594 -0.7726 -0.3699 -0.6562
 2427TIP3    H228841   5.836   0.011   1.467  1.0380 -0.7757  0.1510
 2428TIP3   OH228842   6.191   3.032   0.237  0.2132 -0.1573  0.0525
 2428TIP3    H128843   6.190   2.965   0.306 -0.4924 -0.8689 -0.6273
 2428TIP3    H228844   6.099   3.047   0.216  0.3752  0.8554  0.0121
 2429TIP3   OH228845   4.440   2.997   1.528 -0.0643  0.2612 -0.8092
 2429TIP3    H128846   4.534   2.997   1.549 -0.2714 -1.1059  0.2402
 2429TIP3    H228847   4.436   2.968   1.437  0.5183  0.4148 -0.8922
 2430TIP3   OH228848   0.380   2.707   3.121 -0.0478 -0.4281 -0.4180
 2430TIP3    H128849   0.314   2.645   3.088  0.4055 -1.7908  1.1174
 2430TIP3    H228850   0.352   2.725   3.211  0.0791  1.3072 -0.6987
 2431TIP3   OH228851   6.737   6.002   8.296 -0.1863  0.3749 -0.4717
 2431TIP3    H128852   6.710   6.065   8.229  0.7988 -0.2423 -1.4925
 2431TIP3    H228853   6.735   6.051   8.378 -4.0285  0.4518 -0.4488
 2432TIP3   OH228854   4.097   3.326   0.159  0.2880 -0.1569 -0.2842
 2432TIP3    H128855   4.192   3.330   0.163  0.3888 -2.7182  1.5368
 2432TIP3    H228856   4.068   3.403   0.208  1.4553 -0.3927  0.8236
 2433TIP3   OH228857   6.390   3.434   7.313  0.6099  0.3567  0.0938
 2433TIP3    H128858   6.427   3.395   7.233 -1.7871  0.5066 -1.1782
 2433TIP3    H228859   6.450   3.506   7.334  1.8241 -0.2833 -0.9856
 2434TIP3   OH228860   3.316   4.573   7.474 -0.0609  0.0255 -0.1334
 2434TIP3    H128861   3.345   4.538   7.390 -2.4395 -1.8815 -0.2686
 2434TIP3    H228862   3.228   4.608   7.457 -0.3981  0.0347  1.4331
 2435TIP3   OH228863   1.707   3.152   2.609 -0.4963 -0.4839  0.1342
 2435TIP3    H128864   1.623   3.197   2.612 -1.1397 -1.5666 -0.7821
 2435TIP3    H228865   1.729   3.134   2.700 -1.1722 -0.0548  0.3870
 2436TIP3   OH228866   3.773   1.916   2.375  0.3430 -0.2145  0.3502
 2436TIP3    H128867   3.827   1.987   2.410 -0.2102  0.4017 -0.0056
 2436TIP3    H228868   3.726   1.956   2.301 -1.2544 -0.4654  1.1751
 2437TIP3   OH228869   3.317   1.329   1.759 -0.0010  0.3045 -0.0430
 2437TIP3    H128870   3.364   1.412   1.754 -0.1111  0.3227 -0.8525
 2437TIP3    H228871   3.247   1.345   1.823  0.6408  0.4930  0.6251
 2438TIP3   OH228872   3.722   1.866   3.576 -0.6486 -0.2516 -0.0392
 2438TIP3    H128873   3.688   1.850   3.487  2.2983 -0.6399 -1.1962
 2438TIP3    H228874   3.791   1.930   3.564 -1.6774  1.4428  2.3887
 2439TIP3   OH228875   0.891   3.050   1.163  0.4492 -0.4488 -0.0375
 2439TIP3    H128876   0.882   3.077   1.071  1.2083  0.0441  0.0242
 2439TIP3    H228877   0.850   2.964   1.167 -1.0758  0.2198 -0.4860
 2440TIP3   OH228878   1.986   3.469   8.227  0.4078 -0.1075 -0.3403
 2440TIP3    H128879   2.059   3.413   8.201  1.8729  1.3630  0.4116
 2440TIP3    H228880   2.019   3.558   8.214 -0.3127  0.6305  2.3370
 2441TIP3   OH228881   0.614   5.539   2.353  0.1919  0.2107 -0.3825
 2441TIP3    H128882   0.577   5.627   2.344  0.4964  0.3134 -0.6288
 2441TIP3    H228883   0.705   5.554   2.378  0.1846 -0.0399 -0.1975
 2442TIP3   OH228884   3.539   5.833   2.198 -0.0163  0.1568  0.1941
 2442TIP3    H128885   3.487   5.788   2.265  0.2942 -1.5203 -0.6336
 2442TIP3    H228886   3.527   5.926   2.217 -1.7832 -0.2166  1.1716
 2443TIP3   OH228887   2.261   1.888   2.102  0.1535  0.0696  0.4093
 2443TIP3    H128888   2.232   1.913   2.014 -2.1007 -0.3442  0.9717
 2443TIP3    H228889   2.351   1.858   2.090  0.4218  1.4377 -1.4963
 2444TIP3   OH228890   4.115   6.585   8.629 -0.2602 -0.1611  0.6929
 2444TIP3    H128891   4.116   6.525   8.555 -1.2320  0.0240  0.5109
 2444TIP3    H228892   4.200   6.574   8.671  0.1607 -0.5344 -0.2355
 2445TIP3   OH228893   3.566   1.952   2.605  0.1030  0.7885 -0.7869
 2445TIP3    H128894   3.656   1.957   2.574  0.0350  2.9934 -0.8272
 2445TIP3    H228895   3.512   1.967   2.527 -0.3084 -0.1501 -0.7014
 2446TIP3   OH228896   4.340   3.546   2.875 -0.5393  0.4083  0.2610
 2446TIP3    H128897   4.258   3.595   2.868 -1.0424 -0.2640  1.2885
 2446TIP3    H228898   4.315   3.454   2.867  0.0770  0.1794  0.8339
 2447TIP3   OH228899   0.032   4.670   2.124 -0.0356  0.0533  0.0057
 2447TIP3    H128900  -0.032   4.718   2.071 -0.0927  0.4799  0.4479
 2447TIP3    H228901   0.117   4.704   2.095 -0.0726  0.3719  0.2668
 2448TIP3   OH228902   1.006   0.784   8.421  0.5312  0.8054  0.1964
 2448TIP3    H128903   1.078   0.724   8.440 -1.5829 -2.1462 -0.2213
 2448TIP3    H228904   0.939   0.762   8.486 -0.3454  2.7972  0.0338
 2449TIP3   OH228905   0.909   5.162   2.011 -0.0559  0.0625 -0.1369
 2449TIP3    H128906   0.922   5.071   1.984 -0.1634  0.0748 -0.2311
 2449TIP3    H228907   0.904   5.159   2.106 -0.1282 -0.0400 -0.1434
 2450TIP3   OH228908   0.882   5.422   2.172 -0.0613  0.0123 -0.1707
 2450TIP3    H128909   0.864   5.328   2.181  1.9687 -0.5535 -1.3532
 2450TIP3    H228910   0.921   5.447   2.256  0.1253 -0.4045 -0.1280
 2451TIP3   OH228911   5.301   3.909   8.603 -0.2445  0.1978 -0.0797
 2451TIP3    H128912   5.297   3.820   8.567 -0.7096  0.5122 -0.8069
 2451TIP3    H228913   5.230   3.912   8.668  0.6543 -0.3972  0.9732
 2452TIP3   OH228914   3.539   1.560   2.877 -0.6778  0.6680 -0.2639
 2452TIP3    H128915   3.551   1.653   2.894  2.5012  0.3706 -0.2534
 2452TIP3    H228916   3.528   1.553   2.782 -0.1321  0.9904 -0.3508
 2453TIP3   OH228917   5.258   1.065   8.670  0.3293  0.3432 -0.3709
 2453TIP3    H128918   5.226   1.154   8.653  0.9739  0.5038 -0.7493
 2453TIP3    H228919   5.334   1.077   8.726 -0.1027 -0.0313  0.3140
 2454TIP3   OH228920   1.671   5.969   3.024  0.8974 -0.0347 -0.0525
 2454TIP3    H128921   1.657   5.883   2.984  1.2981  1.0737 -2.7308
 2454TIP3    H228922   1.764   5.987   3.010  0.7906  0.8890  0.3752
 2455TIP3   OH228923   4.598   3.214   3.506 -0.5342  1.1219 -0.8121
 2455TIP3    H128924   4.600   3.166   3.422  2.3099  2.0939 -1.4132
 2455TIP3    H228925   4.552   3.295   3.486 -1.8183  0.4259 -0.8127
 2456TIP3   OH228926   5.822   6.312   1.906 -0.0962  0.7819  0.8786
 2456TIP3    H128927   5.831   6.363   1.987 -0.5156 -0.7534  1.9339
 2456TIP3    H228928   5.728   6.296   1.897 -0.0814  1.1658 -0.0772
 2457TIP3   OH228929   4.271   1.713   1.746 -0.3939  0.0756  0.8193
 2457TIP3    H128930   4.303   1.639   1.798 -2.5232 -0.8793  0.9056
 2457TIP3    H228931   4.345   1.772   1.739  0.6758 -0.9177  2.8855
 2458TIP3   OH228932   5.895   4.588   2.475  0.2577 -0.3661  0.2524
 2458TIP3    H128933   5.932   4.585   2.387 -0.6748  1.7955 -0.2807
 2458TIP3    H228934   5.808   4.549   2.466  0.4324 -0.7845  0.3734
 2459TIP3   OH228935   1.947   0.820   0.291  0.0154  0.2458  0.5580
 2459TIP3    H128936   1.882   0.846   0.357 -0.6177  0.6422 -0.2018
 2459TIP3    H228937   1.897   0.772   0.225  0.3933  0.9963 -0.2994
 2460TIP3   OH228938   3.256   5.033   1.892 -0.1927  0.0781 -0.4381
 2460TIP3    H128939   3.216   5.025   1.978 -2.6228  0.8316 -1.3978
 2460TIP3    H228940   3.346   5.005   1.904 -0.8750 -1.3329  1.9936
 2461TIP3   OH228941   5.484   0.805   8.499 -0.2358 -0.1153  0.4758
 2461TIP3    H128942   5.541   0.833   8.571 -0.3024  1.2546  0.0133
 2461TIP3    H228943   5.500   0.710   8.493  3.1323  0.3677 -0.5578
 2462TIP3   OH228944   1.601   0.100   0.516  0.0848 -0.7307 -0.3506
 2462TIP3    H128945   1.534   0.097   0.584 -0.8208 -1.4411 -1.2419
 2462TIP3    H228946   1.660   0.028   0.538 -0.5252 -1.3254 -0.6173
 2463TIP3   OH228947   6.615   1.218   2.384 -0.1063  0.3120 -0.2890
 2463TIP3    H128948   6.703   1.228   2.420  0.2237 -1.4800 -0.4684
 2463TIP3    H228949   6.588   1.306   2.358  0.8589  1.1979  1.5207
 2464TIP3   OH228950   4.364   4.567   1.096 -0.3128  0.1470  0.7526
 2464TIP3    H128951   4.361   4.477   1.063 -1.3974 -0.2710  1.8943
 2464TIP3    H228952   4.440   4.606   1.053 -0.6651 -0.8631 -0.8761
 2465TIP3   OH228953   5.147   6.066   2.878  0.1567  0.7134 -0.4914
 2465TIP3    H128954   5.129   6.009   2.953  0.5756  0.1701 -0.8003
 2465TIP3    H228955   5.117   6.017   2.802  0.7722  0.7865 -0.7866
 2466TIP3   OH228956   2.064   2.637   0.549 -0.1933  0.9890  0.3152
 2466TIP3    H128957   2.036   2.560   0.499  1.2829  0.8320 -0.3400
 2466TIP3    H228958   2.025   2.625   0.636 -1.6227  0.5298 -0.3681
 2467TIP3   OH228959   4.770   0.475   2.293  0.6240 -0.0604  0.1258
 2467TIP3    H128960   4.857   0.498   2.324  1.4213 -2.3576 -0.1783
 2467TIP3    H228961   4.763   0.515   2.207 -0.0272  2.9709  1.4595
 2468TIP3   OH228962   0.803   2.600   8.703 -0.1307  0.6596  0.2637
 2468TIP3    H128963   0.778   2.517   8.744  1.1622  0.4708  0.7178
 2468TIP3    H228964   0.894   2.587   8.676  0.1041  1.9344  0.3845
 2469TIP3   OH228965   2.790   3.670   0.527  0.5550 -0.4490 -0.2322
 2469TIP3    H128966   2.817   3.581   0.502 -0.6049 -1.5073  1.9374
 2469TIP3    H228967   2.695   3.669   0.518  0.2256 -0.4145  2.4505
 2470TIP3   OH228968   0.363   3.597   0.493  0.3457 -0.5672  0.3801
 2470TIP3    H128969   0.390   3.510   0.521 -1.5423 -2.1159 -2.1289
 2470TIP3    H228970   0.314   3.582   0.412 -0.9795  2.7416  0.3967
 2471TIP3   OH228971   0.599   5.923   0.168  0.5651  0.1090  0.5077
 2471TIP3    H128972   0.582   5.972   0.249  0.7416 -0.4278  0.8760
 2471TIP3    H228973   0.693   5.937   0.152  0.6876 -0.3692  0.7928
 2472TIP3   OH228974   2.249   3.210   7.506 -0.3160 -0.4760  0.0305
 2472TIP3    H128975   2.163   3.170   7.522 -0.0321 -0.4760  1.7432
 2472TIP3    H228976   2.312   3.147   7.540  0.1282  1.5074  3.2681
 2473TIP3   OH228977   0.911   6.217   8.894  0.5023 -0.3644 -0.4017
 2473TIP3    H128978   0.885   6.148   8.955  0.4249  0.3079  0.3276
 2473TIP3    H228979   0.895   6.179   8.807  1.6695 -1.7511 -0.0592
 2474TIP3   OH228980   0.116   2.628   1.672  0.1030 -0.6350  0.3929
 2474TIP3    H128981   0.104   2.709   1.722 -0.2757 -0.1634 -0.4406
 2474TIP3    H228982   0.206   2.633   1.640 -0.1859 -0.1211 -0.3681
 2475TIP3   OH228983   3.131   6.272   2.645  0.3176  0.1832  0.5066
 2475TIP3    H128984   3.191   6.338   2.680  0.7240  0.3618 -0.4983
 2475TIP3    H228985   3.055   6.323   2.615  0.9943  0.3220 -1.0610
 2476TIP3   OH228986   0.784   2.048   2.527  0.0740  0.0418  0.4275
 2476TIP3    H128987   0.809   2.095   2.448  0.6833  1.4067  1.3913
 2476TIP3    H228988   0.867   2.028   2.571 -0.3031  0.4149  1.3359
 2477TIP3   OH228989   2.625   1.145   2.355 -0.2462  0.4017 -0.2203
 2477TIP3    H128990   2.610   1.074   2.418  2.3187 -0.7602 -0.7707
 2477TIP3    H228991   2.634   1.100   2.271  4.0190  0.9164 -0.2413
 2478TIP3   OH228992   6.755   5.662   8.336 -0.3987  0.2094 -0.1203
 2478TIP3    H128993   6.765   5.629   8.425  1.2285 -2.3756 -1.1530
 2478TIP3    H228994   6.839   5.702   8.315 -0.4836  0.0618 -0.7653
 2479TIP3   OH228995   4.089   2.428   8.248  0.2520  0.0740 -0.0579
 2479TIP3    H128996   4.008   2.466   8.214  0.2988  1.9420  1.7108
 2479TIP3    H228997   4.153   2.499   8.244  1.4391 -0.9415 -0.0865
 2480TIP3   OH228998   1.911   2.634   3.110  0.3679 -0.3081  0.1113
 2480TIP3    H128999   1.897   2.690   3.186  3.3346 -0.5573  0.9737
 2480TIP3    H229000   1.968   2.685   3.053  0.4743 -1.2012 -0.6086
 2481TIP3   OH229001   0.567   4.032   0.669  0.0146 -0.3130 -0.0083
 2481TIP3    H129002   0.481   3.991   0.678 -0.6823  0.9553 -0.6011
 2481TIP3    H229003   0.549   4.126   0.677  1.4675 -0.0641  0.6690
 2482TIP3   OH229004   2.449   3.589   0.920  0.1897  0.2036 -0.0981
 2482TIP3    H129005   2.441   3.611   1.012 -0.7004  1.1966 -0.3983
 2482TIP3    H229006   2.359   3.570   0.891  0.0356  2.5036 -1.3670
 2483TIP3   OH229007   5.922   3.296   8.107 -0.1228  0.4797  0.1038
 2483TIP3    H129008   5.915   3.347   8.188  0.3364 -1.0076  1.1248
 2483TIP3    H229009   5.873   3.215   8.125 -0.0553  0.1363 -1.1283
 2484TIP3   OH229010   1.266   5.499   0.038 -0.0824 -0.0975  0.3134
 2484TIP3    H129011   1.184   5.538   0.068 -0.2894  1.0487 -1.5924
 2484TIP3    H229012   1.245   5.462  -0.048  1.3444  0.0417 -0.1255
 2485TIP3   OH229013   2.193   6.726   7.940 -0.0333 -0.0964  0.1099
 2485TIP3    H129014   2.267   6.787   7.946  0.7817 -0.9839 -0.5794
 2485TIP3    H229015   2.122   6.778   7.902  0.3780  0.6392  0.3256
 2486TIP3   OH229016   6.146   1.773   8.801  0.1386  0.3646 -0.6499
 2486TIP3    H129017   6.136   1.859   8.840  0.8219  0.2304 -0.1614
 2486TIP3    H229018   6.236   1.748   8.820 -0.0805 -0.5017 -0.6919
 2487TIP3   OH229019   5.225   0.957   8.404  0.1855 -0.0882  0.0056
 2487TIP3    H129020   5.253   0.978   8.493 -1.0421 -0.3499  0.4612
 2487TIP3    H229021   5.302   0.916   8.364  0.0272 -2.1696  1.6899
 2488TIP3   OH229022   5.175   4.463   1.608 -0.2636 -0.2193 -0.4384
 2488TIP3    H129023   5.139   4.410   1.679  1.0866 -0.9709 -0.2899
 2488TIP3    H229024   5.251   4.414   1.577  1.6892  2.0880  0.4098
 2489TIP3   OH229025   4.021   5.567   3.301 -0.5725  0.2991  0.4333
 2489TIP3    H129026   3.949   5.540   3.358 -0.5331 -0.5179  0.1016
 2489TIP3    H229027   3.978   5.609   3.227 -0.7758 -1.0016 -0.2113
 2490TIP3   OH229028   2.861   3.180   1.287  0.3435  0.6154 -0.6037
 2490TIP3    H129029   2.892   3.180   1.196 -0.9833 -1.1911 -1.1267
 2490TIP3    H229030   2.907   3.107   1.328 -0.2843  0.3870 -0.2952
 2491TIP3   OH229031   6.246   0.129   1.644 -0.0228 -0.4342  0.3818
 2491TIP3    H129032   6.248   0.134   1.548 -0.4001 -1.0141  0.3330
 2491TIP3    H229033   6.187   0.055   1.662 -0.0278 -0.2682  1.0618
 2492TIP3   OH229034   6.066   2.849   3.299 -0.1363  0.4805  0.4286
 2492TIP3    H129035   6.104   2.794   3.368  0.7296 -1.5904 -1.5496
 2492TIP3    H229036   6.126   2.923   3.292 -0.3123  0.8022  1.9519
 2493TIP3   OH229037   4.713   4.493   3.220 -0.3463  0.3225 -0.1033
 2493TIP3    H129038   4.705   4.398   3.213  0.5407  0.2719 -0.6109
 2493TIP3    H229039   4.728   4.522   3.130 -0.1667  0.8944  0.1097
 2494TIP3   OH229040   6.621   0.095   1.307  0.6092 -0.3797  0.7167
 2494TIP3    H129041   6.542   0.149   1.311  2.6283  2.8540  0.8825
 2494TIP3    H229042   6.654   0.093   1.397  1.6041 -0.1504  0.3802
 2495TIP3   OH229043   2.597   4.139   3.769  0.3861 -0.0369  1.0512
 2495TIP3    H129044   2.508   4.104   3.761  0.0793  0.6492  1.3095
 2495TIP3    H229045   2.643   4.104   3.693 -0.0689 -0.5138  0.9881
 2496TIP3   OH229046   5.093   3.520   3.216 -0.1059  0.2718 -0.2696
 2496TIP3    H129047   5.028   3.461   3.254  0.5919  0.6425  1.5845
 2496TIP3    H229048   5.128   3.569   3.290  2.2666  0.1234 -1.2078
 2497TIP3   OH229049   5.344   0.856   3.513  0.4419  0.1178  0.3868
 2497TIP3    H129050   5.408   0.870   3.444  1.5400  0.4149  1.4339
 2497TIP3    H229051   5.342   0.938   3.562 -3.0496  1.3223 -1.3896
 2498TIP3   OH229052   5.326   3.988   1.326  0.0118  0.4368  0.3215
 2498TIP3    H129053   5.410   3.946   1.308 -0.7528 -0.7125 -0.8177
 2498TIP3    H229054   5.297   4.020   1.240 -0.6257  1.0060  0.7376
 2499TIP3   OH229055   6.740   1.710   0.352 -0.2918  0.1382 -0.1960
 2499TIP3    H129056   6.647   1.729   0.364 -0.3971 -0.6920  0.3378
 2499TIP3    H229057   6.785   1.783   0.395 -0.6766  1.0564 -1.2927
 2500TIP3   OH229058   3.932   0.337   0.215  0.0223 -0.2294  0.1700
 2500TIP3    H129059   3.945   0.426   0.248 -1.1144 -0.3851  1.1018
 2500TIP3    H229060   3.991   0.330   0.140  0.0046  1.3582 -0.0207
 2501TIP3   OH229061   5.719   4.632   2.207  0.1754  0.3804  0.5401
 2501TIP3    H129062   5.640   4.685   2.205 -1.3985 -1.8246 -1.2735
 2501TIP3    H229063   5.694   4.553   2.255  0.8853 -0.8624 -1.0507
 2502TIP3   OH229064   1.383   5.441   1.458  0.1735 -0.5740  0.3014
 2502TIP3    H129065   1.467   5.485   1.449  1.0136 -2.2378 -0.5464
 2502TIP3    H229066   1.400   5.370   1.520 -1.1432  0.2745  1.6716
 2503TIP3   OH229067   6.051   6.343   1.327  0.0129 -0.2512  0.1875
 2503TIP3    H129068   6.071   6.434   1.347  0.3821 -0.4275  0.6454
 2503TIP3    H229069   5.956   6.341   1.315 -0.0631  0.0951  0.7031
 2504TIP3   OH229070   4.723   6.509   1.756  0.0224 -1.0788  0.6483
 2504TIP3    H129071   4.703   6.562   1.679  1.8751 -0.5817  0.4801
 2504TIP3    H229072   4.638   6.497   1.799 -0.8359 -0.2413 -0.7429
 2505TIP3   OH229073   3.315   3.238   0.113  0.1075  0.0406  0.4180
 2505TIP3    H129074   3.331   3.246   0.019 -1.1331  0.5341  0.2306
 2505TIP3    H229075   3.220   3.229   0.121  0.3148 -1.5245  1.5404
 2506TIP3   OH229076   4.874   3.978   8.104  0.2707  0.2407 -0.2759
 2506TIP3    H129077   4.957   4.010   8.139 -0.1836  1.3132 -0.1273
 2506TIP3    H229078   4.818   3.967   8.181  0.9017 -2.5724 -0.1201
 2507TIP3   OH229079   0.296   3.885   8.880  0.0908 -0.0710  0.3855
 2507TIP3    H129080   0.317   3.866   8.788  0.1711  0.4697  0.2874
 2507TIP3    H229081   0.380   3.912   8.918  0.1149 -0.5788  0.6899
 2508TIP3   OH229082   0.519   2.599   1.320 -0.1023 -0.1613  0.0081
 2508TIP3    H129083   0.493   2.690   1.305 -0.0692  0.0603  1.1753
 2508TIP3    H229084   0.460   2.547   1.266 -1.8173  0.4269  1.2310
 2509TIP3   OH229085   1.716   0.698   0.607 -0.2682 -0.1849  0.2324
 2509TIP3    H129086   1.724   0.754   0.530  0.0900 -0.6027 -0.0412
 2509TIP3    H229087   1.623   0.677   0.613 -0.4332  0.5783  0.4422
 2510TIP3   OH229088   2.580   0.042   8.271 -0.0808 -0.2227 -0.0092
 2510TIP3    H129089   2.652   0.076   8.219 -0.7466  1.6596  0.2441
 2510TIP3    H229090   2.503   0.089   8.239 -0.8391 -0.5793  1.2227
 2511TIP3   OH229091   1.037   4.955   2.587  0.1466  0.0606  0.2131
 2511TIP3    H129092   1.081   5.010   2.521  1.9339  0.6415  1.7931
 2511TIP3    H229093   0.971   5.012   2.626 -0.1665  0.0637 -0.3140
 2512TIP3   OH229094   2.041   4.059   2.127 -0.2756  0.2262 -0.0176
 2512TIP3    H129095   1.964   4.020   2.085  0.1084 -1.4015  0.7291
 2512TIP3    H229096   2.055   4.141   2.080 -0.8557 -0.7373 -1.9535
 2513TIP3   OH229097   5.039   6.622   0.027  0.0381  0.4535 -0.7695
 2513TIP3    H129098   4.944   6.632   0.019 -0.5446 -3.3842 -0.5775
 2513TIP3    H229099   5.054   6.599   0.118  0.5466 -2.5544 -1.4802
 2514TIP3   OH229100   3.955   0.749   0.096  0.0814  0.0323 -0.1028
 2514TIP3    H129101   3.915   0.682   0.040 -1.0420  0.4689  0.1522
 2514TIP3    H229102   3.880   0.797   0.132  0.8618  2.2137 -1.2101
 2515TIP3   OH229103   0.021   0.168   8.244 -0.1738  0.7410 -0.5928
 2515TIP3    H129104   0.105   0.214   8.239  0.7425 -0.8936 -1.0132
 2515TIP3    H229105   0.045   0.079   8.269 -1.8866  0.4738  0.2222
 2516TIP3   OH229106   5.353   5.837   2.357  0.1913  0.5906  0.1030
 2516TIP3    H129107   5.429   5.852   2.301  0.3298  0.0178  0.1348
 2516TIP3    H229108   5.278   5.859   2.302  0.2704 -0.8913 -0.6518
 2517TIP3   OH229109   0.906   4.906   2.314 -0.5742  0.9036 -0.0788
 2517TIP3    H129110   0.937   4.927   2.402 -0.3563 -0.2589  0.1383
 2517TIP3    H229111   0.862   4.821   2.323 -0.4897  0.7308 -1.0983
 2518TIP3   OH229112   4.475   2.687   8.400  0.2172  0.1746  0.4898
 2518TIP3    H129113   4.553   2.636   8.377 -0.2528  0.1399 -1.1997
 2518TIP3    H229114   4.503   2.778   8.391  0.1088  0.1639  0.0259
 2519TIP3   OH229115   0.295   3.873   1.897 -0.4658  0.5272  0.4810
 2519TIP3    H129116   0.273   3.842   1.985  2.9470 -1.2169  0.8947
 2519TIP3    H229117   0.323   3.964   1.910 -0.5285  0.4628  1.1180
 2520TIP3   OH229118   5.241   5.768   8.628  0.4453  0.6804  0.3728
 2520TIP3    H129119   5.161   5.765   8.575  1.4579  1.3534 -1.2716
 2520TIP3    H229120   5.288   5.846   8.597  1.0520  1.1749  2.3692
 2521TIP3   OH229121   0.424   5.397   2.494 -0.2388 -0.5977  0.1906
 2521TIP3    H129122   0.490   5.442   2.441 -0.8118  0.6497  0.4934
 2521TIP3    H229123   0.404   5.458   2.565 -1.5207 -1.0480  0.2485
 2522TIP3   OH229124   2.469   2.140   7.718 -0.1287  0.0265  0.3274
 2522TIP3    H129125   2.462   2.078   7.791  0.5185 -0.8402 -0.3305
 2522TIP3    H229126   2.466   2.085   7.639 -0.3997  0.9134 -0.3002
 2523TIP3   OH229127   1.490   3.950   8.705  0.2827 -0.1329 -0.7660
 2523TIP3    H129128   1.437   4.005   8.647  0.0869 -0.2987 -0.7431
 2523TIP3    H229129   1.455   3.862   8.693  0.4743 -0.2232 -0.6592
 2524TIP3   OH229130   1.681   6.132   0.305 -0.0467 -0.2597 -0.3610
 2524TIP3    H129131   1.690   6.203   0.242 -1.8053  0.6022  0.2847
 2524TIP3    H229132   1.689   6.052   0.253 -1.2096  0.4211 -1.6561
 2525TIP3   OH229133   4.151   2.358   1.670 -0.0021  0.2484 -0.3948
 2525TIP3    H129134   4.217   2.407   1.621 -1.6190  2.5569 -0.3934
 2525TIP3    H229135   4.142   2.405   1.753 -0.4830 -1.0185  0.3104
 2526TIP3   OH229136   6.466   0.184   0.468  0.0739 -0.0358  0.5356
 2526TIP3    H129137   6.508   0.180   0.382 -1.2729  0.9232 -0.2072
 2526TIP3    H229138   6.439   0.094   0.486 -0.0974 -0.1564 -0.2975
 2527TIP3   OH229139   0.909   3.821   1.545  0.0378  0.5221  0.0977
 2527TIP3    H129140   0.982   3.796   1.602 -0.8804 -0.0211  1.0846
 2527TIP3    H229141   0.831   3.806   1.599 -0.7787  1.6476 -0.7260
 2528TIP3   OH229142   5.214   3.331   1.261  0.0227 -0.7600  0.0671
 2528TIP3    H129143   5.211   3.423   1.235 -2.0056 -0.3101  1.6749
 2528TIP3    H229144   5.214   3.283   1.178 -0.3110  0.6563 -0.7787
 2529TIP3   OH229145   5.830   6.023   0.780  0.5297 -0.4906  0.2198
 2529TIP3    H129146   5.886   6.046   0.705 -0.5096 -2.4215 -1.2491
 2529TIP3    H229147   5.883   5.963   0.832  0.2552 -1.4929 -0.6125
 2530TIP3   OH229148   0.007   3.017   2.078 -0.0175 -0.0020 -0.0203
 2530TIP3    H129149   0.047   3.070   2.009 -0.3450 -0.9776 -0.9964
 2530TIP3    H229150  -0.046   2.952   2.031  0.9203 -1.6419  1.0556
 2531TIP3   OH229151   4.959   4.882   8.631  0.6791  0.0839  0.5332
 2531TIP3    H129152   4.905   4.945   8.582  2.8454  2.8109  1.4321
 2531TIP3    H229153   4.986   4.818   8.565 -1.2756  0.2342 -0.5031
 2532TIP3   OH229154   4.018   4.708   3.316 -0.8324  0.2720 -0.4458
 2532TIP3    H129155   4.059   4.788   3.282  0.3842 -0.2593 -0.2882
 2532TIP3    H229156   3.990   4.732   3.404 -1.8631  0.9584 -0.9365
 2533TIP3   OH229157   4.235   5.585   1.888 -0.2939  0.0873 -0.0127
 2533TIP3    H129158   4.169   5.551   1.948 -0.2970 -0.1256 -0.1366
 2533TIP3    H229159   4.314   5.592   1.942 -0.6629  1.2960  0.3983
 2534TIP3   OH229160   2.762   3.772   7.829  0.4998  0.3319 -0.3643
 2534TIP3    H129161   2.839   3.726   7.862 -0.6890 -1.8944 -0.5415
 2534TIP3    H229162   2.692   3.745   7.888 -0.7767 -0.2550 -2.0950
 2535TIP3   OH229163   6.248   3.170   8.867  0.1600  0.1357 -0.0105
 2535TIP3    H129164   6.282   3.085   8.895 -0.0045  0.6200  1.8342
 2535TIP3    H229165   6.290   3.233   8.926 -0.3957  1.2351 -0.7499
 2536TIP3   OH229166   5.104   2.409   0.960  0.3413 -0.3595 -0.8129
 2536TIP3    H129167   5.028   2.466   0.950  1.7047  1.2569 -2.8449
 2536TIP3    H229168   5.093   2.343   0.891  0.6524 -0.2298 -0.9921
 2537TIP3   OH229169   0.444   4.300   7.997 -0.2653  0.4307  0.2349
 2537TIP3    H129170   0.381   4.273   8.063 -0.2892 -0.9508 -0.3062
 2537TIP3    H229171   0.429   4.393   7.985 -0.0703  0.7774  2.3461
 2538TIP3   OH229172   6.332   2.135   8.323 -0.2291 -0.2394 -0.6295
 2538TIP3    H129173   6.398   2.158   8.258 -0.5348 -0.7479 -1.1331
 2538TIP3    H229174   6.249   2.158   8.282 -0.3474  1.0023  0.2533
 2539TIP3   OH229175   1.887   4.910   7.968  0.1721  0.0406 -0.1207
 2539TIP3    H129176   1.969   4.930   7.922 -0.0845  0.2130 -0.5177
 2539TIP3    H229177   1.823   4.897   7.897 -0.0256 -0.6081  0.1765
 2540TIP3   OH229178   4.296   0.621   8.576  0.1662  0.2846 -0.0775
 2540TIP3    H129179   4.389   0.629   8.556  0.4062  1.4137  1.2727
 2540TIP3    H229180   4.253   0.681   8.514  0.3170 -0.2902 -0.7476
 2541TIP3   OH229181   4.402   0.526   2.522  0.1151 -0.1861  0.1660
 2541TIP3    H129182   4.427   0.444   2.562 -0.5138 -1.0164 -1.0636
 2541TIP3    H229183   4.362   0.577   2.593  0.0279 -1.1501  0.8197
 2542TIP3   OH229184   3.038   5.910   2.009 -0.1688 -0.1867  0.0540
 2542TIP3    H129185   3.063   5.856   2.084  0.7910 -0.1532 -0.2188
 2542TIP3    H229186   2.943   5.909   2.009 -0.3336  2.0799  2.9142
 2543TIP3   OH229187   5.034   1.694   0.783 -0.0752  0.1622 -0.0648
 2543TIP3    H129188   4.954   1.647   0.807 -0.2852 -0.9013 -2.5826
 2543TIP3    H229189   5.016   1.785   0.807 -0.4997 -0.5962  2.9274
 2544TIP3   OH229190   6.520   1.021   0.734  0.3923 -0.4403 -0.7322
 2544TIP3    H129191   6.477   1.092   0.685  0.8110  0.6240  0.4094
 2544TIP3    H229192   6.447   0.970   0.770  0.0903 -0.1850 -0.9698
 2545TIP3   OH229193   0.434   2.640   7.435 -0.4952  0.1020  0.0094
 2545TIP3    H129194   0.389   2.571   7.385 -0.7126 -0.3404  0.8035
 2545TIP3    H229195   0.413   2.621   7.526 -1.7546  2.0456  0.1977
 2546TIP3   OH229196   5.042   5.612   3.185 -0.9601  0.2817  0.1794
 2546TIP3    H129197   5.065   5.702   3.162  1.7165 -0.0895  1.0557
 2546TIP3    H229198   5.086   5.558   3.119 -0.9490 -0.4421  0.7607
 2547TIP3   OH229199   5.001   2.212   3.411  0.5226 -0.5963 -0.4983
 2547TIP3    H129200   5.088   2.216   3.372  0.7204  0.3082  0.0048
 2547TIP3    H229201   5.005   2.136   3.470  1.3914  0.1667  0.4713
 2548TIP3   OH229202   2.871   2.419   2.480 -0.3344  0.7967  0.7029
 2548TIP3    H129203   2.807   2.467   2.427 -0.6310 -0.2808  0.0626
 2548TIP3    H229204   2.823   2.345   2.515  1.0479 -1.4107 -1.7220
 2549TIP3   OH229205   0.310   0.277   3.424  0.3129 -0.2427 -0.6161
 2549TIP3    H129206   0.319   0.186   3.396  0.3087 -0.2083 -0.7306
 2549TIP3    H229207   0.328   0.329   3.345  1.0215 -0.1245 -0.3818
 2550TIP3   OH229208   2.290   2.604   7.358 -0.1696  0.4036  0.3123
 2550TIP3    H129209   2.255   2.555   7.284  0.1467  0.7422 -0.0676
 2550TIP3    H229210   2.239   2.685   7.360 -0.8712 -0.0473  1.1023
 2551TIP3   OH229211   2.394   1.181   2.661 -0.0738 -0.8393  0.5020
 2551TIP3    H129212   2.365   1.098   2.625 -1.0801 -0.0082 -0.7227
 2551TIP3    H229213   2.335   1.199   2.734 -1.6114 -0.0119 -0.8611
 2552TIP3   OH229214   2.537   3.451   0.266  0.6882  0.8002 -0.1139
 2552TIP3    H129215   2.533   3.451   0.361  0.3138 -1.1890 -0.0927
 2552TIP3    H229216   2.516   3.361   0.240 -2.5010  1.9935 -2.2319
 2553TIP3   OH229217   3.854   2.317   0.555  0.6404 -0.3441  0.0238
 2553TIP3    H129218   3.848   2.251   0.486 -2.8337 -1.6791  1.3982
 2553TIP3    H229219   3.790   2.384   0.530 -0.5917 -0.7884  1.7882
 2554TIP3   OH229220   1.923   6.488   1.059 -0.4036  0.3968 -0.1857
 2554TIP3    H129221   1.985   6.440   1.004  0.6439  1.6401 -0.1401
 2554TIP3    H229222   1.978   6.536   1.120 -1.0880  4.2657 -2.2967
 2555TIP3   OH229223   0.712   5.468   0.616 -0.4751 -0.1817 -0.3799
 2555TIP3    H129224   0.698   5.375   0.598  1.2050 -0.4324 -0.5266
 2555TIP3    H229225   0.751   5.470   0.704 -1.5835  0.4948  0.1257
 2556TIP3   OH229226   6.580   3.424   1.919 -0.0592  0.1433 -0.7373
 2556TIP3    H129227   6.527   3.364   1.867 -0.3822  0.1124 -0.3772
 2556TIP3    H229228   6.615   3.370   1.990 -1.8016  0.7048  0.6492
 2557TIP3   OH229229   6.461   5.453   0.253 -0.6177  0.3090 -0.2621
 2557TIP3    H129230   6.486   5.483   0.165  2.6904  3.0350  1.3563
 2557TIP3    H229231   6.393   5.515   0.281  1.1471  2.0342  0.4372
 2558TIP3   OH229232   2.023   4.129   1.268 -0.1790  0.4847 -0.1592
 2558TIP3    H129233   2.015   4.036   1.246  0.2742  0.3763  0.1123
 2558TIP3    H229234   2.054   4.170   1.188 -1.4737  0.5970 -0.6298
 2559TIP3   OH229235   5.595   2.172   0.727  0.7677 -0.5615  0.4602
 2559TIP3    H129236   5.583   2.077   0.724  0.4979 -0.5094 -2.1823
 2559TIP3    H229237   5.558   2.204   0.645  2.3843  1.6587  0.4998
 2560TIP3   OH229238   6.117   0.479   0.048 -0.3542 -0.1118 -0.0169
 2560TIP3    H129239   6.040   0.494   0.102  0.1867 -0.2015  0.8002
 2560TIP3    H229240   6.112   0.545  -0.021 -1.4910 -0.5341 -0.3525
 2561TIP3   OH229241   3.372   3.975   2.883 -0.2170  0.7364  0.2031
 2561TIP3    H129242   3.336   4.021   2.959 -1.2419  0.6769 -0.2331
 2561TIP3    H229243   3.347   4.028   2.808  1.0112  0.9265 -0.0913
 2562TIP3   OH229244   3.810   1.162   8.400 -0.0668 -0.9151  0.7306
 2562TIP3    H129245   3.738   1.178   8.461 -0.2398 -0.9948  0.5491
 2562TIP3    H229246   3.884   1.211   8.436 -0.9056  1.3704 -0.4635
 2563TIP3   OH229247   3.410   4.498   0.642 -0.4266 -0.3731 -0.3953
 2563TIP3    H129248   3.368   4.580   0.669 -0.4100  0.5046 -2.7778
 2563TIP3    H229249   3.386   4.488   0.550  2.1009 -1.4280 -1.0137
 2564TIP3   OH229250   5.235   3.630   2.109 -0.2201  0.3026  0.9069
 2564TIP3    H129251   5.286   3.586   2.177 -1.4405  1.3216  2.5468
 2564TIP3    H229252   5.262   3.587   2.028  1.6113 -0.6568  1.9517
 2565TIP3   OH229253   1.669   2.462   8.439  0.3401 -0.6516 -0.0015
 2565TIP3    H129254   1.689   2.509   8.357 -0.7966  0.5292  0.3654
 2565TIP3    H229255   1.597   2.404   8.416 -0.7201  0.4699  0.3795
 2566TIP3   OH229256   1.571   4.595   2.665 -0.1285  0.1357  0.7486
 2566TIP3    H129257   1.580   4.602   2.760 -0.0060 -1.6600  0.9208
 2566TIP3    H229258   1.659   4.574   2.634 -0.5018 -1.2136  0.5026
 2567TIP3   OH229259   0.514   3.318   0.227 -0.1727  0.2938 -0.2071
 2567TIP3    H129260   0.609   3.330   0.226 -0.2296  0.7600 -0.9728
 2567TIP3    H229261   0.482   3.377   0.159 -1.2966  2.6714  2.2028
 2568TIP3   OH229262   2.809   6.662   1.859 -0.0752  0.6256 -0.0804
 2568TIP3    H129263   2.754   6.739   1.877 -0.1038  1.2575 -2.4562
 2568TIP3    H229264   2.756   6.610   1.798 -0.4429 -1.8298  2.1402
 2569TIP3   OH229265   4.840   4.383   3.613 -0.0199  0.2341  0.1613
 2569TIP3    H129266   4.828   4.446   3.684  1.6894  1.2244 -0.3640
 2569TIP3    H229267   4.756   4.381   3.568 -0.9391  0.0478  1.8349
 2570TIP3   OH229268   2.411   4.674   0.524  0.1687  0.2200  0.6473
 2570TIP3    H129269   2.470   4.698   0.596  1.4156 -1.4937  0.2566
 2570TIP3    H229270   2.407   4.752   0.469  1.0897  0.7612  1.3244
 2571TIP3   OH229271   5.166   1.880   3.394 -0.1119  0.5458  0.1959
 2571TIP3    H129272   5.234   1.845   3.451 -0.7778 -1.4881 -0.1768
 2571TIP3    H229273   5.097   1.813   3.396 -0.9212  1.2842 -1.5543
 2572TIP3   OH229274   3.810   5.582   1.975 -0.1561 -0.8150  0.1508
 2572TIP3    H129275   3.786   5.565   1.884 -1.5237  0.1689  0.2816
 2572TIP3    H229276   3.860   5.664   1.972 -2.4386  0.6948  0.4670
 2573TIP3   OH229277   5.712   3.119   8.560  0.2901  0.0058 -0.1639
 2573TIP3    H129278   5.709   3.198   8.614 -0.6947 -0.5354  0.5934
 2573TIP3    H229279   5.698   3.047   8.620  2.5070 -0.9089 -0.6313
 2574TIP3   OH229280   1.760   3.604   1.910 -0.3344  0.5150  0.1949
 2574TIP3    H129281   1.780   3.626   1.819 -0.2111  2.7334  0.7122
 2574TIP3    H229282   1.677   3.556   1.906 -1.0246  1.7350 -1.0084
 2575TIP3   OH229283   2.121   4.924   2.897 -0.0446  0.4749  0.2875
 2575TIP3    H129284   2.026   4.937   2.893 -0.0472  0.4264  0.2072
 2575TIP3    H229285   2.132   4.839   2.939 -0.0533  0.0481 -0.5663
 2576TIP3   OH229286   2.999   3.613   7.647 -0.4411  0.1718  0.0560
 2576TIP3    H129287   3.023   3.569   7.565  1.1054 -0.0767  0.6083
 2576TIP3    H229288   3.082   3.647   7.681 -0.9193 -0.3585  1.8726
 2577TIP3   OH229289   4.074   0.461   8.228  0.3355 -0.0561  0.2397
 2577TIP3    H129290   4.130   0.518   8.281  0.6814 -1.4226  1.3984
 2577TIP3    H229291   3.990   0.461   8.273  0.9284 -2.0416  1.4639
 2578TIP3   OH229292   5.107   2.817   8.766 -0.1111  0.5359 -0.1506
 2578TIP3    H129293   5.165   2.859   8.829 -0.5878  1.2388 -0.1657
 2578TIP3    H229294   5.027   2.798   8.816  0.9555 -2.7355  0.5728
 2579TIP3   OH229295   1.629   4.122   1.247 -0.2423 -0.3087  0.3651
 2579TIP3    H129296   1.594   4.036   1.270 -0.7920  0.3458  2.1980
 2579TIP3    H229297   1.556   4.182   1.262  0.1675  0.5036 -0.7833
 2580TIP3   OH229298   3.997   4.105   0.971  0.0085  0.0443  0.1870
 2580TIP3    H129299   3.971   4.170   1.036 -0.1911 -0.0660  0.2172
 2580TIP3    H229300   3.989   4.151   0.887  0.9419  0.4054  0.2881
 2581TIP3   OH229301   5.689   5.262   2.932  0.1308  0.1623  0.1420
 2581TIP3    H129302   5.635   5.341   2.943  0.1434  0.3505 -1.0087
 2581TIP3    H229303   5.779   5.295   2.930  0.2014  0.0062  0.6003
 2582TIP3   OH229304   3.985   6.268   8.668 -0.1830 -0.0103 -0.7133
 2582TIP3    H129305   3.935   6.196   8.629 -2.1796  1.2103 -0.5285
 2582TIP3    H229306   4.005   6.325   8.594  1.9889 -1.0125 -0.9736
 2583TIP3   OH229307   4.402   3.277   8.756 -0.2379  0.3252  0.0833
 2583TIP3    H129308   4.409   3.292   8.662 -1.6361  0.2243 -0.0587
 2583TIP3    H229309   4.489   3.297   8.790 -0.0559  1.6458 -1.0526
 2584TIP3   OH229310   1.982   1.227   1.450  0.3858  0.2977 -0.8920
 2584TIP3    H129311   2.046   1.297   1.437  1.6893 -0.8342 -0.7806
 2584TIP3    H229312   2.013   1.181   1.529 -0.6971 -0.1398 -0.7119
 2585TIP3   OH229313   2.930   2.640   1.801  0.2390 -0.1896  0.8494
 2585TIP3    H129314   3.008   2.590   1.779 -0.4022 -2.0220  2.4540
 2585TIP3    H229315   2.948   2.729   1.769  2.0211 -1.0689 -0.7837
 2586TIP3   OH229316   0.925   0.693   8.664 -0.4381  0.0481  0.0533
 2586TIP3    H129317   0.866   0.767   8.681 -0.2001  0.7962 -2.0993
 2586TIP3    H229318   0.870   0.629   8.619  0.2229  0.5675 -1.5648
 2587TIP3   OH229319   5.441   2.311   2.826 -0.7047  0.6324 -0.3277
 2587TIP3    H129320   5.410   2.366   2.898  0.5681  1.2049 -0.1806
 2587TIP3    H229321   5.500   2.248   2.868 -0.0905  0.8572 -0.8268
 2588TIP3   OH229322   5.437   0.204   7.967 -0.2669  0.0949  0.2648
 2588TIP3    H129323   5.362   0.264   7.970  1.0040  1.7528  0.3122
 2588TIP3    H229324   5.459   0.198   7.874  0.6795  1.1474  0.3964
 2589TIP3   OH229325   3.702   2.118   0.916  0.0683 -0.4135 -0.3281
 2589TIP3    H129326   3.618   2.071   0.918 -0.1599 -0.1883 -2.4004
 2589TIP3    H229327   3.746   2.084   0.839  1.6570 -0.0851  0.4040
 2590TIP3   OH229328   6.195   2.884   0.494  0.1470  0.5126  0.3768
 2590TIP3    H129329   6.287   2.860   0.509  0.5607  2.0325  0.3762
 2590TIP3    H229330   6.167   2.826   0.422  1.3966  0.7107 -0.2998
 2591TIP3   OH229331   0.997   2.920   1.841 -0.3888 -0.7413  0.1081
 2591TIP3    H129332   1.035   2.833   1.847  1.2661 -0.1289 -0.8729
 2591TIP3    H229333   0.971   2.942   1.931 -2.5381 -2.9046  0.1220
 2592TIP3   OH229334   2.427   6.417   8.463 -0.0095  0.2080  0.4776
 2592TIP3    H129335   2.484   6.475   8.513 -0.2467  0.0830  0.8950
 2592TIP3    H229336   2.367   6.380   8.527 -1.0172  0.8665 -0.0427
 2593TIP3   OH229337   6.010   2.048   1.933  0.1603 -0.0239  0.4694
 2593TIP3    H129338   5.988   1.994   2.008 -0.0877 -1.2552 -0.4578
 2593TIP3    H229339   5.932   2.045   1.877  0.1599  1.2563  0.3682
 2594TIP3   OH229340   0.425   2.675   2.041 -0.6285  0.2647 -0.3563
 2594TIP3    H129341   0.482   2.610   1.999 -1.1835  0.6187 -1.6960
 2594TIP3    H229342   0.342   2.629   2.054  0.3168 -0.8155  3.1450
 2595TIP3   OH229343   4.769   2.912   2.571  0.0791 -0.1641  0.6200
 2595TIP3    H129344   4.799   3.001   2.554  0.8534 -0.9277 -2.9231
 2595TIP3    H229345   4.847   2.865   2.600 -0.5385  0.4054  3.5053
 2596TIP3   OH229346   2.121   1.035   1.600 -0.4956  0.0216 -0.8277
 2596TIP3    H129347   2.126   0.973   1.672 -0.3158 -0.8236 -1.5529
 2596TIP3    H229348   2.211   1.046   1.571 -0.7645 -1.3375 -2.3092
 2597TIP3   OH229349   2.239   1.667   8.163 -0.2178  0.2897 -0.5602
 2597TIP3    H129350   2.261   1.632   8.249 -0.4770  0.0784 -0.5803
 2597TIP3    H229351   2.207   1.592   8.113  1.9759 -0.0632 -1.5722
 2598TIP3   OH229352   2.376   1.993   0.122  0.4138  0.4814 -0.5521
 2598TIP3    H129353   2.312   1.942   0.172 -0.8114 -0.9060 -3.3248
 2598TIP3    H229354   2.461   1.956   0.146 -0.3147 -1.6786 -1.0772
 2599TIP3   OH229355   0.358   4.365   0.933 -0.3200 -0.2673  0.1362
 2599TIP3    H129356   0.302   4.396   1.004  0.0650  1.1738 -0.1418
 2599TIP3    H229357   0.298   4.353   0.859 -0.1163  3.8833 -0.9946
 2600TIP3   OH229358   5.337   5.068   7.593  0.6167 -0.3994  0.0790
 2600TIP3    H129359   5.300   5.071   7.681 -1.7042 -0.8412 -0.8051
 2600TIP3    H229360   5.321   5.156   7.558  1.3094 -0.2996  0.0044
 2601TIP3   OH229361   4.592   0.704   7.942  0.3956 -0.2101 -0.3678
 2601TIP3    H129362   4.610   0.627   7.889 -0.4476 -0.2222 -0.6433
 2601TIP3    H229363   4.637   0.775   7.896  0.9101 -0.4714 -0.2820
 2602TIP3   OH229364   6.414   6.328   2.601 -0.1358 -0.4119 -0.4585
 2602TIP3    H129365   6.365   6.300   2.679 -0.6341  2.3591  0.3207
 2602TIP3    H229366   6.503   6.344   2.633  0.1183 -0.9532 -0.8737
 2603TIP3   OH229367   3.065   2.843   1.079 -0.3482 -0.0576 -0.2589
 2603TIP3    H129368   3.081   2.885   1.163  0.8622  0.1848 -0.5962
 2603TIP3    H229369   3.092   2.907   1.014  1.8827 -1.4251 -0.7811
 2604TIP3   OH229370   1.280   3.060   3.348  0.0758 -0.0953  0.3495
 2604TIP3    H129371   1.368   3.069   3.311  0.8523 -0.4006  2.0180
 2604TIP3    H229372   1.270   3.138   3.403 -0.9005  0.1640 -0.1743
 2605TIP3   OH229373   4.602   4.288   0.302  0.4526 -0.0840  0.5188
 2605TIP3    H129374   4.683   4.327   0.335 -0.0416  0.8844  0.6301
 2605TIP3    H229375   4.534   4.320   0.361  0.0289 -1.1868  0.6507
 2606TIP3   OH229376   5.115   0.372   8.298  0.0699 -0.6691 -0.0541
 2606TIP3    H129377   5.188   0.336   8.349 -0.9335  0.0594  2.0052
 2606TIP3    H229378   5.086   0.299   8.243  0.5660 -1.7957  1.1319
 2607TIP3   OH229379   1.959   3.855   0.501  0.1823 -0.2046  0.4368
 2607TIP3    H129380   1.866   3.830   0.494  0.2320  0.1058 -2.2547
 2607TIP3    H229381   1.958   3.950   0.505  0.4113 -0.0530 -2.0033
 2608TIP3   OH229382   3.646   2.657   2.484  0.1753  0.0220  0.1559
 2608TIP3    H129383   3.595   2.738   2.482  2.2970  1.4397 -1.2238
 2608TIP3    H229384   3.607   2.602   2.417 -0.2175  0.6319 -0.1229
 2609TIP3   OH229385   3.261   4.980   3.606 -0.2248 -0.2973  0.0220
 2609TIP3    H129386   3.243   5.071   3.630  0.6864 -0.2137  0.4354
 2609TIP3    H229387   3.200   4.961   3.535 -0.5403  0.5835  0.0474
 2610TIP3   OH229388   0.240   4.828   2.042 -0.0771 -0.6676 -0.7659
 2610TIP3    H129389   0.332   4.842   2.022  0.5723  1.0113  2.6927
 2610TIP3    H229390   0.196   4.907   2.011 -0.2837 -1.1363 -1.7199
 2611TIP3   OH229391   2.118   1.420   0.371  0.4250 -0.2355  0.4890
 2611TIP3    H129392   2.121   1.516   0.378  0.8608 -0.2410  0.3886
 2611TIP3    H229393   2.089   1.404   0.281  0.1136 -0.1991  0.5808
 2612TIP3   OH229394   5.780   2.376   8.749  0.4397 -0.0183  0.9344
 2612TIP3    H129395   5.708   2.412   8.696 -0.2737 -2.1939  0.3231
 2612TIP3    H229396   5.740   2.303   8.796  2.2450 -1.2676  0.6049
 2613TIP3   OH229397   2.461   2.078   2.650  0.4629 -0.1980  0.1563
 2613TIP3    H129398   2.536   2.103   2.703  0.8499 -1.1230  0.0591
 2613TIP3    H229399   2.431   1.995   2.687 -0.7168  0.3111  0.3974
 2614TIP3   OH229400   1.649   5.396   7.620  0.5713  0.4466 -0.6073
 2614TIP3    H129401   1.609   5.357   7.543 -2.1997  1.0669  0.4272
 2614TIP3    H229402   1.606   5.481   7.630 -0.6671 -0.4122  2.6736
 2615TIP3   OH229403   1.537   4.974   0.740 -0.3620 -0.0499  0.6244
 2615TIP3    H129404   1.510   4.894   0.785  0.9499 -1.3475 -0.7469
 2615TIP3    H229405   1.629   4.986   0.766 -0.6307  1.1850  1.0405
 2616TIP3   OH229406   4.514   2.335   8.479 -0.2381  0.3005 -0.1947
 2616TIP3    H129407   4.533   2.420   8.438  0.5530  0.1882 -0.0846
 2616TIP3    H229408   4.594   2.284   8.465  0.2707  0.4299  1.9164
 2617TIP3   OH229409   6.298   2.438   8.723  0.5581 -0.1306 -0.5552
 2617TIP3    H129410   6.285   2.469   8.633  1.2482 -0.2284 -0.6953
 2617TIP3    H229411   6.257   2.352   8.726  0.4742 -0.0964 -0.7597
 2618TIP3   OH229412   6.566   3.552   2.741 -0.0171  0.3164  0.5174
 2618TIP3    H129413   6.475   3.529   2.719  0.7145 -0.3186 -2.1823
 2618TIP3    H229414   6.608   3.468   2.760  0.7054  0.2451 -1.2775
 2619TIP3   OH229415   6.031   1.374   2.285  0.1769 -0.5086 -0.5742
 2619TIP3    H129416   6.093   1.423   2.339  1.2793 -1.4093 -0.9912
 2619TIP3    H229417   6.084   1.306   2.243 -0.9856 -0.9178 -1.4204
 2620TIP3   OH229418   3.810   3.928   8.208  0.7948  0.7204  0.2094
 2620TIP3    H129419   3.821   3.978   8.289 -0.5850  0.2215  0.7362
 2620TIP3    H229420   3.731   3.963   8.168 -0.8889 -1.7046  1.1758
 2621TIP3   OH229421   1.878   0.464   1.687  0.1313 -0.0750 -0.0273
 2621TIP3    H129422   1.864   0.517   1.766  0.7902  1.5906 -0.9709
 2621TIP3    H229423   1.818   0.391   1.696 -0.3434  0.4811  1.6657
 2622TIP3   OH229424   2.603   3.138   2.808  0.2976  0.2334 -0.1093
 2622TIP3    H129425   2.527   3.093   2.844  1.5311 -1.0530  1.0374
 2622TIP3    H229426   2.615   3.214   2.864 -0.0849  0.4007 -0.2499
 2623TIP3   OH229427   1.312   4.025   1.198 -0.3057 -0.2860 -0.3235
 2623TIP3    H129428   1.227   3.993   1.169 -0.0680  0.2043 -1.6160
 2623TIP3    H229429   1.299   4.119   1.210 -0.3811 -0.4541  1.1798
 2624TIP3   OH229430   6.486   0.648   7.837 -0.6733 -0.7540 -0.7844
 2624TIP3    H129431   6.449   0.723   7.884  2.9870  0.7129  0.1122
 2624TIP3    H229432   6.546   0.687   7.774 -0.2115 -2.9301 -1.7711
 2625TIP3   OH229433   3.645   5.580   2.218  0.2453  0.2591 -0.0003
 2625TIP3    H129434   3.695   5.560   2.139  0.8581  0.7656  0.2546
 2625TIP3    H229435   3.608   5.667   2.202 -2.7095 -1.0882 -1.2508
 2626TIP3   OH229436   2.998   2.232   8.342 -0.2478 -0.0994 -0.1710
 2626TIP3    H129437   3.056   2.251   8.416  0.7752  1.2669 -1.2626
 2626TIP3    H229438   2.909   2.239   8.379  0.1302  3.3622  0.4150
 2627TIP3   OH229439   6.753   0.727   1.200 -0.2569 -0.1010 -0.0444
 2627TIP3    H129440   6.769   0.785   1.275 -1.7806  0.5498 -0.1807
 2627TIP3    H229441   6.722   0.786   1.131  0.1523 -0.8314 -0.8702
 2628TIP3   OH229442   4.886   4.105   3.251  0.2247  0.7145 -0.0096
 2628TIP3    H129443   4.895   4.102   3.346 -0.4370 -0.4612  0.0387
 2628TIP3    H229444   4.968   4.067   3.218  1.0153  2.3156  0.0309
 2629TIP3   OH229445   3.687   3.315   1.166  0.0789 -0.7572 -0.1426
 2629TIP3    H129446   3.664   3.225   1.186  0.2370 -0.8431 -0.3496
 2629TIP3    H229447   3.670   3.324   1.072 -1.9471  0.0225  0.2410
 2630TIP3   OH229448   0.898   2.409   7.487  0.0490  0.0214 -0.5328
 2630TIP3    H129449   0.873   2.501   7.481 -0.6486 -0.0891  0.4818
 2630TIP3    H229450   0.956   2.395   7.411  1.5079  1.7124  0.1984
 2631TIP3   OH229451   0.418   0.340   8.738  0.2401  0.4937 -0.4851
 2631TIP3    H129452   0.346   0.286   8.769  2.0331 -1.8897 -0.1522
 2631TIP3    H229453   0.405   0.347   8.644 -0.2508 -0.2347 -0.4803
 2632TIP3   OH229454   4.714   6.166   1.447 -0.0962 -0.1273 -0.4195
 2632TIP3    H129455   4.674   6.251   1.434  1.8110  0.6817 -1.4449
 2632TIP3    H229456   4.794   6.169   1.395  0.9488 -1.8713  0.9580
 2633TIP3   OH229457   1.624   4.748   0.030 -0.0516 -0.4167  0.1971
 2633TIP3    H129458   1.588   4.733   0.118  2.0974 -0.1560  1.1944
 2633TIP3    H229459   1.660   4.662   0.005 -0.9218 -0.5650 -0.5806
 2634TIP3   OH229460   5.825   3.941   2.730  0.6302 -0.2814  0.5346
 2634TIP3    H129461   5.733   3.913   2.733  0.4157  0.4209  0.8564
 2634TIP3    H229462   5.854   3.937   2.821  0.7027  0.1607  0.5347
 2635TIP3   OH229463   2.290   6.204   7.874  0.0829 -0.0317 -0.3430
 2635TIP3    H129464   2.206   6.209   7.919  0.5553 -1.7181  0.8394
 2635TIP3    H229465   2.278   6.137   7.807  0.7691 -1.1221  0.5894
 2636TIP3   OH229466   3.957   5.231   1.368 -0.2050 -0.1885  0.1894
 2636TIP3    H129467   4.038   5.179   1.370  0.3816  0.7114  1.2435
 2636TIP3    H229468   3.957   5.277   1.452 -0.6007  1.6313 -0.7564
 2637TIP3   OH229469   6.659   4.748   2.362  0.2163  0.6212 -0.0391
 2637TIP3    H129470   6.629   4.839   2.365  0.4785  0.7642 -1.3750
 2637TIP3    H229471   6.711   4.742   2.282  1.2958 -0.3806  0.7044
 2638TIP3   OH229472   3.577   4.335   1.615 -0.2051  0.0593  0.8065
 2638TIP3    H129473   3.562   4.355   1.707  0.0528  0.6016  0.7349
 2638TIP3    H229474   3.489   4.330   1.577 -0.2915  2.6433  0.5053
 2639TIP3   OH229475   4.832   6.396   2.511 -0.6405  0.2465  0.0786
 2639TIP3    H129476   4.910   6.348   2.540 -1.5817  0.4307  3.3167
 2639TIP3    H229477   4.850   6.487   2.533 -1.8733  0.2416  1.2236
 2640TIP3   OH229478   2.332   4.271   1.892  0.0256  0.2905  0.0010
 2640TIP3    H129479   2.276   4.208   1.846  1.1139  0.5081 -1.6921
 2640TIP3    H229480   2.359   4.334   1.824  1.3930  0.8498  1.0122
 2641TIP3   OH229481   1.703   2.764   0.935 -0.6589  0.5345  0.1507
 2641TIP3    H129482   1.679   2.674   0.913 -0.3972  0.0369  1.7569
 2641TIP3    H229483   1.651   2.818   0.875 -0.8275 -0.6693 -0.8348
 2642TIP3   OH229484   5.370   1.966   8.014 -0.2448 -0.3933  0.7430
 2642TIP3    H129485   5.431   1.900   7.982  0.2317  0.0593  0.7114
 2642TIP3    H229486   5.307   1.977   7.943  1.0087  0.8644 -0.2096
 2643TIP3   OH229487   0.427   3.470   2.013  0.3107  0.4017 -0.0478
 2643TIP3    H129488   0.493   3.525   1.970  0.0822  1.6894  1.1900
 2643TIP3    H229489   0.361   3.455   1.946  1.1065  0.3882 -0.8478
 2644TIP3   OH229490   0.999   4.300   0.692 -0.0482  0.5167 -0.2134
 2644TIP3    H129491   0.982   4.224   0.636 -1.2187  0.0376  0.7388
 2644TIP3    H229492   1.085   4.330   0.666 -0.3815  0.0608 -1.9764
 2645TIP3   OH229493   5.016   2.750   7.667  0.5863  0.2970 -0.6257
 2645TIP3    H129494   5.060   2.665   7.653  0.1631  0.1345 -0.9982
 2645TIP3    H229495   4.964   2.763   7.587  1.7481  1.5937 -1.2225
 2646TIP3   OH229496   4.579   3.358   1.548 -0.2559  0.1837 -0.0900
 2646TIP3    H129497   4.493   3.323   1.573 -1.0376  1.5714 -0.7585
 2646TIP3    H229498   4.615   3.392   1.630 -1.6340  2.2463 -0.2792
 2647TIP3   OH229499   5.837   2.641   0.369 -0.2520  0.6576  0.3422
 2647TIP3    H129500   5.745   2.631   0.396 -0.5603  0.8705 -0.5881
 2647TIP3    H229501   5.882   2.568   0.412 -0.4805  1.6259  2.3814
 2648TIP3   OH229502   0.873   6.326   1.962 -0.4064 -0.1850 -0.5136
 2648TIP3    H129503   0.914   6.412   1.952  0.3662 -0.4428  0.2940
 2648TIP3    H229504   0.791   6.345   2.009  1.5991 -0.1929  3.4335
 2649TIP3   OH229505   4.017   2.111   1.620  1.1314  0.0445  0.1056
 2649TIP3    H129506   4.045   2.201   1.635  0.8174  0.1012  0.3601
 2649TIP3    H229507   3.928   2.108   1.655  1.4685 -0.6039  0.9217
 2650TIP3   OH229508   5.957   0.218   0.513 -0.3211  0.6374  0.1643
 2650TIP3    H129509   6.046   0.233   0.544  0.2435 -0.7765 -0.6803
 2650TIP3    H229510   5.937   0.296   0.461  0.2116  1.2027  0.7763
 2651TIP3   OH229511   5.190   4.194   8.676 -0.7460 -0.1122 -0.4488
 2651TIP3    H129512   5.097   4.218   8.671 -1.0361 -0.1912  2.4282
 2651TIP3    H229513   5.227   4.258   8.738  0.6689 -1.2288 -0.1034
 2652TIP3   OH229514   2.100   2.727   7.530 -0.1253 -0.2858 -0.1592
 2652TIP3    H129515   2.042   2.654   7.552  0.5298 -0.7622 -0.0035
 2652TIP3    H229516   2.187   2.688   7.523  0.2795  0.5220  0.2126
 2653TIP3   OH229517   4.184   4.854   2.123  0.2646  0.4586 -0.0157
 2653TIP3    H129518   4.162   4.855   2.030 -1.7077 -1.2657  0.3614
 2653TIP3    H229519   4.280   4.855   2.125  0.3551 -0.0199 -2.0641
 2654TIP3   OH229520   1.207   1.347   8.271  0.6358 -0.4802 -0.1501
 2654TIP3    H129521   1.215   1.276   8.335  0.9949  2.2787  3.1779
 2654TIP3    H229522   1.113   1.355   8.256  0.3372  0.0964  1.7376
 2655TIP3   OH229523   3.306   4.427   8.525 -0.4785  0.0913 -0.3450
 2655TIP3    H129524   3.244   4.359   8.497 -0.6436  0.6907 -1.5064
 2655TIP3    H229525   3.260   4.509   8.507 -0.8511  0.5465  2.3370
 2656TIP3   OH229526   5.373   1.411   8.116  0.0204  0.5906  0.3015
 2656TIP3    H129527   5.454   1.398   8.066 -1.1840  0.9853 -1.8699
 2656TIP3    H229528   5.339   1.323   8.130  1.5762  0.2708  2.7091
 2657TIP3   OH229529   6.687   4.313   0.390 -0.0613 -0.0540  0.6008
 2657TIP3    H129530   6.663   4.402   0.415  0.4988  0.4622 -0.6268
 2657TIP3    H229531   6.627   4.292   0.318  0.4336 -0.3228  0.2672
 2658TIP3   OH229532   2.235   4.120   0.258 -0.2206 -0.4819 -0.0635
 2658TIP3    H129533   2.234   4.205   0.214 -2.6067  0.8922  2.3963
 2658TIP3    H229534   2.172   4.068   0.208 -0.5212 -0.0293 -0.1635
 2659TIP3   OH229535   4.664   5.024   3.688 -0.4745  0.3496  0.6853
 2659TIP3    H129536   4.570   5.030   3.671 -0.1663 -1.1550 -2.2330
 2659TIP3    H229537   4.698   5.111   3.666 -1.1593  0.9588  1.9358
 2660TIP3   OH229538   2.945   0.599   7.739  0.0629 -0.0592 -0.2081
 2660TIP3    H129539   2.883   0.533   7.769 -0.0409 -1.0261 -2.3117
 2660TIP3    H229540   2.906   0.683   7.764 -1.4726 -0.6897 -0.3891
 2661TIP3   OH229541   2.183   3.299   2.610  0.0818  0.1151  0.1235
 2661TIP3    H129542   2.274   3.309   2.638 -0.5607 -2.8815  4.2688
 2661TIP3    H229543   2.179   3.211   2.573 -1.2064 -0.0612  0.6234
 2662TIP3   OH229544   5.196   0.358   7.973  0.1007  0.0210 -0.5950
 2662TIP3    H129545   5.158   0.338   7.887 -0.3684 -1.6475 -0.0272
 2662TIP3    H229546   5.147   0.303   8.034  0.4879  1.1167  0.7543
 2663TIP3   OH229547   1.844   4.996   8.219  0.2675 -0.6287 -0.2173
 2663TIP3    H129548   1.789   4.922   8.245 -1.5016 -0.0029 -1.9253
 2663TIP3    H229549   1.873   4.974   8.131  1.1148 -0.0194 -0.0971
 2664TIP3   OH229550   5.133   5.562   0.043  0.5412  0.7257  0.4071
 2664TIP3    H129551   5.063   5.615   0.004 -0.3807 -0.6970  0.0380
 2664TIP3    H229552   5.088   5.510   0.110  1.3005 -0.0431  0.3303
 2665TIP3   OH229553   6.761   4.388   0.728  0.2039 -0.6587  0.0701
 2665TIP3    H129554   6.842   4.338   0.736 -0.7026 -2.4667 -1.1857
 2665TIP3    H229555   6.703   4.349   0.794  0.1518  0.2144  0.5516
 2666TIP3   OH229556   5.800   5.686   1.915  0.5603  0.1178 -0.2520
 2666TIP3    H129557   5.748   5.707   1.837  2.0214  0.3228 -1.2053
 2666TIP3    H229558   5.832   5.598   1.899 -0.5921 -0.5723  0.9822
 2667TIP3   OH229559   3.863   6.029   2.740  0.3867 -0.3490  0.4902
 2667TIP3    H129560   3.853   5.938   2.710  0.2701 -0.2192  0.1303
 2667TIP3    H229561   3.957   6.045   2.736  0.2263  0.9126 -3.6427
 2668TIP3   OH229562   5.096   0.330   7.713 -0.3520  0.1822 -0.0609
 2668TIP3    H129563   5.086   0.402   7.650 -0.0584  0.8577  0.6457
 2668TIP3    H229564   5.126   0.256   7.660 -3.1320 -0.2173 -1.2658
 2669TIP3   OH229565   3.726   0.093   8.849  0.7530  0.3554  0.1774
 2669TIP3    H129566   3.681   0.018   8.811 -1.6689  2.5724 -1.6787
 2669TIP3    H229567   3.818   0.080   8.825  0.1731 -1.2756 -1.3952
 2670TIP3   OH229568   6.175   6.258   8.875  0.2471  0.0524  0.3339
 2670TIP3    H129569   6.088   6.267   8.912 -0.4080 -1.0116 -0.8575
 2670TIP3    H229570   6.166   6.189   8.809  1.2954  1.8926 -1.8861
 2671TIP3   OH229571   5.890   4.955   1.760 -0.1234  0.0285 -0.1502
 2671TIP3    H129572   5.949   4.947   1.685  0.3614  0.1759  0.2150
 2671TIP3    H229573   5.856   4.866   1.773 -0.3669  0.0396 -0.6649
 2672TIP3   OH229574   1.317   4.493   1.917 -0.0006 -0.0701 -0.4121
 2672TIP3    H129575   1.256   4.446   1.860 -1.1409  1.1920 -0.2814
 2672TIP3    H229576   1.325   4.580   1.878  1.6002 -0.1328 -0.3207
 2673TIP3   OH229577   5.531   4.843   3.062 -0.5864  0.1220 -0.4410
 2673TIP3    H129578   5.572   4.921   3.100 -0.7392  1.0889 -2.1490
 2673TIP3    H229579   5.570   4.770   3.109 -0.2333  1.2071  1.0285
 2674TIP3   OH229580   1.850   2.446   8.183  0.0895  0.0738 -0.1251
 2674TIP3    H129581   1.827   2.539   8.195  1.1471  0.2276  0.9057
 2674TIP3    H229582   1.944   2.447   8.165 -0.0914 -0.7456 -1.2580
 2675TIP3   OH229583   1.947   5.371   0.692 -0.3045  0.4753  0.5812
 2675TIP3    H129584   1.991   5.383   0.608  0.6994  0.2595  1.0596
 2675TIP3    H229585   1.929   5.277   0.697 -1.8881  0.7147 -0.1147
 2676TIP3   OH229586   5.338   0.871   2.615 -0.1007  0.3662 -0.5107
 2676TIP3    H129587   5.306   0.949   2.659  0.4878 -0.1919  0.9662
 2676TIP3    H229588   5.348   0.897   2.523 -2.4412  1.2369 -0.5765
 2677TIP3   OH229589   5.213   3.478   1.508 -0.5669  0.4156 -0.1171
 2677TIP3    H129590   5.255   3.393   1.522 -0.5705  0.4501  0.0965
 2677TIP3    H229591   5.204   3.484   1.412  0.2433  0.5747 -0.1871
 2678TIP3   OH229592   5.317   0.934   0.812 -0.2535  0.3596 -0.3173
 2678TIP3    H129593   5.272   0.925   0.728  1.5650 -0.8213 -1.2195
 2678TIP3    H229594   5.361   1.020   0.807 -0.3427  0.3961 -0.4734
 2679TIP3   OH229595   3.229   5.613   1.218  0.6028 -0.4564 -0.0909
 2679TIP3    H129596   3.265   5.685   1.270 -0.3080 -0.3254  0.3692
 2679TIP3    H229597   3.246   5.640   1.127 -0.4581  0.7679  0.0342
 2680TIP3   OH229598   6.007   5.023   0.637  0.0189 -0.4219  0.1484
 2680TIP3    H129599   5.924   5.038   0.593  0.3129  0.0586 -0.2594
 2680TIP3    H229600   5.985   4.971   0.714 -0.9000  1.1034  0.9496
 2681TIP3   OH229601   6.467   4.966   2.237 -0.6317 -0.3583  0.2527
 2681TIP3    H129602   6.428   4.887   2.198  0.0475  0.5080 -2.3822
 2681TIP3    H229603   6.396   5.030   2.234 -0.6265 -0.3311  0.6628
 2682TIP3   OH229604   6.472   2.403   1.924  0.3383 -0.0477 -0.3996
 2682TIP3    H129605   6.483   2.316   1.963  0.2364 -0.3181 -0.9662
 2682TIP3    H229606   6.514   2.396   1.839  0.9481  0.6723 -0.1612
 2683TIP3   OH229607   5.042   2.135   8.585  0.1185  0.2996  0.0354
 2683TIP3    H129608   5.024   2.104   8.674  0.2913  1.6386  0.5541
 2683TIP3    H229609   5.120   2.086   8.558  0.3978  0.2842  0.8351
 2684TIP3   OH229610   4.380   4.316   0.964 -0.0080  0.4589  0.2899
 2684TIP3    H129611   4.343   4.247   0.910  2.3040 -1.2272  0.7374
 2684TIP3    H229612   4.426   4.270   1.034  3.1497  2.3316 -0.3685
 2685TIP3   OH229613   0.257   0.135   0.376  0.7518  0.4411 -0.0226
 2685TIP3    H129614   0.260   0.058   0.432  0.8656  0.8320  0.5178
 2685TIP3    H229615   0.343   0.138   0.334 -0.4056 -1.8048 -2.9426
 2686TIP3   OH229616   5.800   4.064   1.982  0.2479  0.3037 -0.1748
 2686TIP3    H129617   5.760   4.002   1.921 -2.3718 -1.6133  3.1223
 2686TIP3    H229618   5.725   4.112   2.019  1.7526  1.8562  1.0075
 2687TIP3   OH229619   3.795   6.561   1.180  0.0841 -0.2219 -0.1287
 2687TIP3    H129620   3.734   6.615   1.129 -1.5985  0.0212  2.0040
 2687TIP3    H229621   3.769   6.471   1.160  0.2927 -0.1641 -0.6749
 2688TIP3   OH229622   0.387   0.069   1.810  0.2448  0.1300  0.2229
 2688TIP3    H129623   0.312   0.077   1.751  0.9579 -0.7427 -0.8297
 2688TIP3    H229624   0.432  -0.011   1.782  0.4252 -0.4955  2.1692
 2689TIP3   OH229625   5.861   2.803   2.757  0.3312 -0.3307  0.7098
 2689TIP3    H129626   5.790   2.778   2.698  0.1314  1.3386  0.2088
 2689TIP3    H229627   5.843   2.754   2.837 -1.7264  0.4360  0.7804
 2690TIP3   OH229628   0.007   3.425   1.065  0.0344  0.2779  0.5090
 2690TIP3    H129629  -0.013   3.468   1.148 -2.7813  0.7482 -0.3223
 2690TIP3    H229630   0.057   3.491   1.016  0.7270  0.4142  1.3582
 2691TIP3   OH229631   5.506   1.133   2.538 -0.2400 -0.2095  0.2983
 2691TIP3    H129632   5.568   1.121   2.467  0.7492  0.0920  1.0786
 2691TIP3    H229633   5.497   1.228   2.547 -0.3348 -0.2443  0.5912
 2692TIP3   OH229634   5.684   6.769   8.248 -0.2959 -0.7974 -0.4642
 2692TIP3    H129635   5.728   6.763   8.164  1.6904  0.4293  0.4054
 2692TIP3    H229636   5.704   6.686   8.292 -1.3004 -1.4195 -1.1516
 2693TIP3   OH229637   0.142   6.357   7.132 -0.1845  0.8842 -0.0828
 2693TIP3    H129638   0.217   6.407   7.102 -0.5142  0.6322 -1.4244
 2693TIP3    H229639   0.075   6.372   7.065 -1.4980  1.4738  1.3166
 2694TIP3   OH229640   0.114   5.263   8.644 -0.1684 -0.2130  1.1614
 2694TIP3    H129641   0.188   5.267   8.583  0.5794  0.1085  2.0717
 2694TIP3    H229642   0.038   5.250   8.587  0.8472 -3.8000  0.3766
 2695TIP3   OH229643   5.225   5.940   7.775 -0.3248 -0.1566 -0.4529
 2695TIP3    H129644   5.179   6.013   7.734  1.7850  0.6686 -1.4464
 2695TIP3    H229645   5.182   5.931   7.861 -0.8475  2.0398 -0.4215
 2696TIP3   OH229646   6.451   1.003   1.105 -0.0615 -0.1783 -0.1771
 2696TIP3    H129647   6.362   1.038   1.106 -0.7150 -1.7199 -1.1843
 2696TIP3    H229648   6.501   1.064   1.159 -1.2852  1.8587 -1.2213
 2697TIP3   OH229649   1.473   1.726   1.240 -0.1978  0.1345 -0.5592
 2697TIP3    H129650   1.410   1.656   1.221  1.0236 -0.9072 -0.9352
 2697TIP3    H229651   1.558   1.688   1.218  0.5679  1.5145 -0.0976
 2698TIP3   OH229652   3.288   3.540   7.608  0.1352  0.4339  0.2763
 2698TIP3    H129653   3.232   3.508   7.537 -0.6948  0.7993  0.7446
 2698TIP3    H229654   3.310   3.629   7.584  3.3993 -0.7421 -1.5932
 2699TIP3   OH229655   5.505   4.185   8.203  0.5841 -0.3927 -0.1711
 2699TIP3    H129656   5.563   4.247   8.160 -0.1318 -0.8335 -1.8783
 2699TIP3    H229657   5.417   4.214   8.180  0.2089 -1.3061  0.0473
 2700TIP3   OH229658   3.492   4.759   1.539  0.2339  0.5187  0.3240
 2700TIP3    H129659   3.439   4.718   1.608  0.9419 -0.2082  0.4394
 2700TIP3    H229660   3.580   4.762   1.576  1.1161 -1.9367 -1.3846
 2701TIP3   OH229661   1.556   2.852   8.783 -0.7092  0.7788  0.2506
 2701TIP3    H129662   1.495   2.865   8.855  1.8402  2.0769  2.3392
 2701TIP3    H229663   1.544   2.761   8.757 -1.6508  0.2467  2.3685
 2702TIP3   OH229664   5.559   0.878   0.925 -0.6583 -0.0805 -0.3172
 2702TIP3    H129665   5.528   0.870   1.016 -0.8575  4.6497  0.2610
 2702TIP3    H229666   5.479   0.893   0.874 -0.2417  1.7277 -0.4896
 2703TIP3   OH229667   4.308   2.739   2.776  0.5114  0.2407  0.0178
 2703TIP3    H129668   4.321   2.781   2.861 -0.4596 -0.5410  0.5674
 2703TIP3    H229669   4.391   2.752   2.730  1.7211 -0.8961  1.7718
 2704TIP3   OH229670   2.194   1.120   0.341  0.0460 -0.7217  0.7310
 2704TIP3    H129671   2.262   1.187   0.345  0.3742 -1.0127  0.0724
 2704TIP3    H229672   2.112   1.169   0.342  0.2884 -0.2267 -1.0821
 2705TIP3   OH229673   2.461   3.204   0.905 -0.0405 -0.3963 -0.0040
 2705TIP3    H129674   2.518   3.268   0.947 -0.1577  0.7922 -1.5808
 2705TIP3    H229675   2.374   3.244   0.907 -0.0897 -0.4271 -1.1302
 2706TIP3   OH229676   3.590   4.103   2.777 -0.1062  0.4790  0.3873
 2706TIP3    H129677   3.663   4.045   2.757 -0.5583 -0.8129  2.2322
 2706TIP3    H229678   3.533   4.051   2.834 -2.0673  1.7203 -0.3422
 2707TIP3   OH229679   1.332   3.739   2.657  0.1441 -0.1520  0.6087
 2707TIP3    H129680   1.374   3.824   2.660  2.3798 -1.0797 -1.3765
 2707TIP3    H229681   1.365   3.698   2.577 -0.7068 -2.9444  1.5549
 2708TIP3   OH229682   3.435   3.784   0.031  0.3834 -0.0877  0.9016
 2708TIP3    H129683   3.353   3.833   0.030  0.3324 -0.0783  2.3737
 2708TIP3    H229684   3.409   3.692   0.029  0.3877 -0.0760  0.2652
 2709TIP3   OH229685   5.647   1.516   2.686 -0.2945 -0.0762  0.7120
 2709TIP3    H129686   5.666   1.459   2.761  1.2980 -0.9949 -0.3298
 2709TIP3    H229687   5.729   1.519   2.637 -1.2010  0.7913 -0.8179
 2710TIP3   OH229688   5.900   6.217   7.941 -0.1014 -0.1518 -0.7283
 2710TIP3    H129689   5.954   6.292   7.967  0.4507 -0.7963  0.0834
 2710TIP3    H229690   5.884   6.229   7.848  0.1053  0.8903 -0.6372
 2711TIP3   OH229691   6.522   2.521   0.356 -0.6284  0.2256 -0.4635
 2711TIP3    H129692   6.591   2.487   0.415 -0.8940 -0.8560 -0.7477
 2711TIP3    H229693   6.566   2.530   0.272 -0.6576  0.1885 -0.4826
 2712TIP3   OH229694   2.419   0.587   0.787  0.3076  0.3092 -0.5827
 2712TIP3    H129695   2.398   0.621   0.874 -2.4907  0.6018 -1.2839
 2712TIP3    H229696   2.483   0.518   0.803  1.4838  1.7588  1.4655
 2713TIP3   OH229697   6.615   2.946   3.195  0.6581 -0.3379 -0.5162
 2713TIP3    H129698   6.669   2.910   3.265  0.1297 -0.7272 -0.3009
 2713TIP3    H229699   6.670   3.012   3.153  0.6566  0.6214  0.8892
 2714TIP3   OH229700   5.338   3.053   2.363  0.1168  0.1143  0.0645
 2714TIP3    H129701   5.419   3.040   2.411  1.0755  0.0152 -1.5043
 2714TIP3    H229702   5.343   2.992   2.290 -2.0057 -0.8586  0.6618
 2715TIP3   OH229703   1.301   2.881   8.618  0.1970 -0.4895 -0.2473
 2715TIP3    H129704   1.348   2.814   8.568  0.9050 -0.7656  0.7630
 2715TIP3    H229705   1.333   2.871   8.707  0.7457  1.5536 -0.1483
 2716TIP3   OH229706   3.470   5.413   2.373 -0.0994  0.2390 -0.1844
 2716TIP3    H129707   3.426   5.365   2.303  0.4988 -1.4211  0.5399
 2716TIP3    H229708   3.536   5.466   2.327 -1.1512  0.8558 -1.0390
 2717TIP3   OH229709   3.237   5.673   0.499 -0.2929  0.0324  0.2977
 2717TIP3    H129710   3.251   5.767   0.504  1.7081 -0.1631 -0.5963
 2717TIP3    H229711   3.214   5.657   0.407  1.0578 -0.4975  0.0241
 2718TIP3   OH229712   4.964   0.936   8.143  0.1068 -0.0966 -0.0140
 2718TIP3    H129713   4.949   0.984   8.061  1.6530 -0.1886 -0.3706
 2718TIP3    H229714   5.026   0.867   8.120  0.1596 -0.4535  1.1322
 2719TIP3   OH229715   5.728   0.197   0.646  0.2711  0.4220 -0.0484
 2719TIP3    H129716   5.811   0.177   0.603  0.6735 -0.2907  1.0136
 2719TIP3    H229717   5.670   0.222   0.574  1.7462  2.2734 -0.7048
 2720TIP3   OH229718   0.813   5.380   7.755  0.7229 -0.1100  0.3301
 2720TIP3    H129719   0.727   5.344   7.777  0.3756  0.5877  0.1456
 2720TIP3    H229720   0.794   5.468   7.722  1.3311 -0.6388 -1.5288
 2721TIP3   OH229721   1.630   3.126   0.793  0.2988  0.0065  0.0284
 2721TIP3    H129722   1.593   3.144   0.706  0.0140  2.0867  0.5200
 2721TIP3    H229723   1.724   3.144   0.782 -0.0231  2.4744  0.5877
 2722TIP3   OH229724   3.382   5.806   1.360 -0.2015 -0.6820 -0.2227
 2722TIP3    H129725   3.373   5.799   1.455  0.4779  0.2686 -0.0785
 2722TIP3    H229726   3.475   5.826   1.346 -0.5648  0.5453 -1.0028
 2723TIP3   OH229727   5.309   5.171   0.849 -0.2714 -0.0555 -0.6099
 2723TIP3    H129728   5.285   5.087   0.809 -0.5291  1.5086 -4.0641
 2723TIP3    H229729   5.368   5.212   0.786  1.5965  1.5243  1.9750
 2724TIP3   OH229730   4.537   5.367   2.262 -0.3992  0.5213 -0.2223
 2724TIP3    H129731   4.491   5.448   2.282  0.3271  0.5696  1.4065
 2724TIP3    H229732   4.629   5.386   2.280  0.1202  0.0215 -2.1020
 2725TIP3   OH229733   2.196   2.725   8.847 -0.0989  0.1430  0.6561
 2725TIP3    H129734   2.290   2.721   8.865 -0.4518 -0.7633  2.5440
 2725TIP3    H229735   2.169   2.811   8.880 -0.0821  0.0473  0.9209
 2726TIP3   OH229736   3.065   0.837   1.640  0.4090 -0.2331 -0.1020
 2726TIP3    H129737   2.977   0.807   1.619 -0.2445  0.8061  1.0355
 2726TIP3    H229738   3.058   0.932   1.647  1.4633 -0.1837  0.6222
 2727TIP3   OH229739   2.363   3.054   2.946 -0.0107 -0.2208 -0.5922
 2727TIP3    H129740   2.297   3.055   2.876  0.4668  0.8250 -1.0638
 2727TIP3    H229741   2.315   3.079   3.025 -0.3944 -0.5731 -0.7126
 2728TIP3   OH229742   5.721   4.075   8.657  0.3633  0.8239  0.1701
 2728TIP3    H129743   5.815   4.056   8.647  0.3655  1.7151 -2.2862
 2728TIP3    H229744   5.709   4.160   8.615 -2.0337 -0.6969 -2.5967
 2729TIP3   OH229745   0.045   5.721   7.366  0.3289  0.4867 -0.2614
 2729TIP3    H129746   0.035   5.782   7.293  0.4974 -0.5019 -1.1587
 2729TIP3    H229747  -0.041   5.715   7.406  0.4171  1.6234  0.1087
 2730TIP3   OH229748   3.849   1.043   0.936 -0.2502 -0.4719  0.1018
 2730TIP3    H129749   3.847   1.127   0.890 -1.4792 -0.6779 -0.2691
 2730TIP3    H229750   3.761   1.007   0.923 -0.2612 -1.0694  1.6495
 2731TIP3   OH229751   4.526   2.914   8.847 -0.8891 -0.0735 -0.0960
 2731TIP3    H129752   4.579   2.836   8.829 -0.3840 -0.3064  2.1091
 2731TIP3    H229753   4.463   2.917   8.775 -0.9013 -2.5094 -0.2700
 2732TIP3   OH229754   2.907   5.492   1.719  0.4037  0.1339  0.1215
 2732TIP3    H129755   2.900   5.433   1.644 -1.8999  1.8959 -1.1679
 2732TIP3    H229756   2.843   5.458   1.782  0.6429  0.0287  0.3119
 2733TIP3   OH229757   2.783   1.122   0.951 -0.3822  0.1012 -0.4778
 2733TIP3    H129758   2.760   1.033   0.975 -0.4780  0.9717  3.2291
 2733TIP3    H229759   2.874   1.132   0.979 -0.2734  1.0829 -1.1223
 2734TIP3   OH229760   4.801   2.556   0.537 -0.2938 -0.3241 -0.4826
 2734TIP3    H129761   4.727   2.507   0.574  0.2669  1.3823  3.3868
 2734TIP3    H229762   4.762   2.611   0.469 -2.1473 -1.2028 -0.1968
 2735TIP3   OH229763   6.394   0.383   8.435 -0.1922  0.2705  0.1211
 2735TIP3    H129764   6.315   0.330   8.426 -0.3078  0.3575  0.6175
 2735TIP3    H229765   6.396   0.438   8.357 -0.5899  0.2288  0.0821
 2736TIP3   OH229766   0.921   0.720   0.807  0.4389  0.1658  0.2187
 2736TIP3    H129767   0.992   0.777   0.777  0.2736  0.3007  0.0816
 2736TIP3    H229768   0.958   0.672   0.881  0.5329  0.5594  0.4286
 2737TIP3   OH229769   3.591   4.780   7.989  0.3121 -0.3056 -0.0191
 2737TIP3    H129770   3.558   4.790   8.078  0.6660 -1.5063  0.2636
 2737TIP3    H229771   3.686   4.786   7.998  0.3799 -0.9676 -0.2230
 2738TIP3   OH229772   4.281   3.010   2.290  0.2590  0.2758  0.1336
 2738TIP3    H129773   4.293   2.923   2.252 -1.4137 -0.1020  0.3801
 2738TIP3    H229774   4.305   2.999   2.382 -0.6769 -0.1450  0.3406
 2739TIP3   OH229775   1.887   5.580   1.912  0.1547 -0.3103  0.2253
 2739TIP3    H129776   1.870   5.673   1.894  0.6092 -0.4360 -0.9035
 2739TIP3    H229777   1.964   5.559   1.859 -1.6668 -2.0746 -1.8904
 2740TIP3   OH229778   4.030   1.806   0.432  0.1652 -0.1266  0.4239
 2740TIP3    H129779   4.115   1.841   0.403  0.4748 -1.9992 -1.1078
 2740TIP3    H229780   4.048   1.765   0.516  0.4686  0.6603  0.7489
 2741TIP3   OH229781   0.021   5.165   0.019  0.5194  0.5863 -0.2940
 2741TIP3    H129782  -0.010   5.152  -0.071  0.0889 -0.8291  0.0387
 2741TIP3    H229783   0.053   5.079   0.046  0.3322  0.9118  1.0197
 2742TIP3   OH229784   4.821   6.268   3.421 -0.0615  0.4673 -0.7323
 2742TIP3    H129785   4.841   6.181   3.386 -1.0706  0.0954 -0.4542
 2742TIP3    H229786   4.906   6.310   3.432  0.5066 -0.7628 -0.1836
 2743TIP3   OH229787   1.952   3.340   2.082  0.1181 -0.1231  0.5897
 2743TIP3    H129788   1.957   3.406   2.151 -0.9406 -1.8035  2.3945
 2743TIP3    H229789   2.043   3.310   2.071  0.4740  1.0000  0.3635
 2744TIP3   OH229790   4.730   6.515   7.750 -0.2676 -0.3752  0.4673
 2744TIP3    H129791   4.784   6.495   7.827  2.5257 -2.0368 -1.7357
 2744TIP3    H229792   4.742   6.609   7.736 -0.0507 -0.2363  1.4994
 2745TIP3   OH229793   0.565   5.996   8.826 -0.1824 -0.1355 -0.3947
 2745TIP3    H129794   0.584   5.933   8.897  1.0622  0.3762 -0.2404
 2745TIP3    H229795   0.530   6.073   8.871  0.6150  0.1923 -0.3149
 2746TIP3   OH229796   5.257   5.219   2.977 -0.7408 -0.4107  0.9374
 2746TIP3    H129797   5.256   5.124   2.963 -1.9443 -0.7699  3.0522
 2746TIP3    H229798   5.297   5.230   3.063 -0.6305  1.0076  0.7246
 2747TIP3   OH229799   5.462   2.478   3.294 -0.3194  0.4749  0.3424
 2747TIP3    H129800   5.524   2.550   3.305  0.6903 -0.7048  3.6216
 2747TIP3    H229801   5.517   2.403   3.269 -0.9388  0.2128 -0.2522
 2748TIP3   OH229802   2.558   5.336   0.603  0.3119 -0.1192  0.2134
 2748TIP3    H129803   2.607   5.331   0.685 -1.1841 -0.2971  1.1405
 2748TIP3    H229804   2.481   5.389   0.625 -0.1648 -0.2669 -1.0542
 2749TIP3   OH229805   1.158   3.170   2.054 -0.2932 -0.2772 -0.1962
 2749TIP3    H129806   1.090   3.102   2.049 -1.2524  0.4987  1.3528
 2749TIP3    H229807   1.146   3.209   2.141  1.1921  0.8872 -0.4737
 2750TIP3   OH229808   2.117   3.665   2.847  0.4122  0.1286  0.1424
 2750TIP3    H129809   2.081   3.588   2.802  1.8650  0.3677 -1.5093
 2750TIP3    H229810   2.176   3.628   2.913  2.5598 -0.2749 -1.8580
 2751TIP3   OH229811   5.728   6.149   0.059 -0.0582  0.0255 -0.0185
 2751TIP3    H129812   5.794   6.113   0.119  2.0132 -0.5306 -2.4581
 2751TIP3    H229813   5.668   6.076   0.043 -1.0207  0.3618  1.7675
 2752TIP3   OH229814   2.328   0.597   2.519 -0.0193  0.2497  0.3946
 2752TIP3    H129815   2.306   0.566   2.607  0.8895 -2.6537 -0.3193
 2752TIP3    H229816   2.408   0.649   2.531 -0.7319  1.1635  1.4245
 2753TIP3   OH229817   3.218   5.996   2.920 -0.5315  0.0357 -0.2789
 2753TIP3    H129818   3.293   5.993   2.979  0.2201 -0.1234 -1.2226
 2753TIP3    H229819   3.159   6.060   2.960  0.0468  0.0883  0.5276
 2754TIP3   OH229820   0.401   6.538   8.819 -0.3712  0.0465 -0.0295
 2754TIP3    H129821   0.315   6.497   8.819 -0.7854  0.7348 -2.6471
 2754TIP3    H229822   0.453   6.486   8.757  0.5463  0.6929  0.1656
 2755TIP3   OH229823   6.660   2.198   0.409 -0.3135  0.5241 -0.6154
 2755TIP3    H129824   6.630   2.117   0.450 -1.2721  0.4777 -1.3619
 2755TIP3    H229825   6.645   2.265   0.475  1.6813 -0.0492  0.4958
 2756TIP3   OH229826   2.686   1.535   0.409 -0.0101  0.2876  0.4036
 2756TIP3    H129827   2.609   1.553   0.463  0.1482 -1.0880  1.1404
 2756TIP3    H229828   2.718   1.450   0.440  0.4333 -0.2834 -1.4473
 2757TIP3   OH229829   5.988   2.823   0.047  0.1368 -0.5540 -0.4614
 2757TIP3    H129830   5.940   2.836  -0.035  0.1016 -2.5569 -0.8018
 2757TIP3    H229831   5.927   2.851   0.115  0.0573  0.8551 -1.0689
 2758TIP3   OH229832   0.911   0.470   8.381 -0.4488  0.1037 -0.2198
 2758TIP3    H129833   0.893   0.380   8.406 -0.7361  0.1040 -0.4173
 2758TIP3    H229834   0.986   0.465   8.322 -1.8138 -0.2452 -2.0052
 2759TIP3   OH229835   5.170   4.546   1.997 -0.5753 -0.3081  0.2414
 2759TIP3    H129836   5.168   4.592   1.913  1.5971  1.1710  0.9133
 2759TIP3    H229837   5.101   4.588   2.049 -1.5307 -0.8311 -0.5567
 2760TIP3   OH229838   5.179   5.024   2.590 -0.4718  0.8016  0.2313
 2760TIP3    H129839   5.264   5.020   2.633 -0.9468  1.0197  1.2094
 2760TIP3    H229840   5.126   4.957   2.635 -0.9735  1.0261 -0.0156
 2761TIP3   OH229841   3.378   6.633   0.063  0.0415  0.2372 -0.1826
 2761TIP3    H129842   3.339   6.661  -0.020  0.0545 -0.0990 -0.3039
 2761TIP3    H229843   3.306   6.638   0.127  0.0843  0.7005 -0.1682
 2762TIP3   OH229844   2.130   6.329   1.662 -0.7448 -0.8896  0.2473
 2762TIP3    H129845   2.134   6.311   1.756  2.1867  0.1787  0.4240
 2762TIP3    H229846   2.100   6.247   1.623  0.1759 -2.1013  1.9527
 2763TIP3   OH229847   0.706   0.811   0.409 -0.0680 -0.3182  0.1568
 2763TIP3    H129848   0.648   0.888   0.409 -0.1218 -0.3489 -0.6797
 2763TIP3    H229849   0.728   0.797   0.501  1.4606  1.8293  0.1833
 2764TIP3   OH229850   4.063   1.231   1.895  0.7441 -0.4128 -0.0262
 2764TIP3    H129851   4.015   1.211   1.976  0.9972 -2.6115 -0.3363
 2764TIP3    H229852   4.155   1.219   1.918  0.8053 -1.2816 -0.6694
 2765TIP3   OH229853   2.607   2.457   3.211  0.7595 -0.5222  0.1036
 2765TIP3    H129854   2.648   2.532   3.254  1.1010 -0.9131  0.4781
 2765TIP3    H229855   2.606   2.479   3.118  0.2337  0.2354  0.2887
 2766TIP3   OH229856   3.616   2.357   8.779 -0.3260  0.4631  0.6543
 2766TIP3    H129857   3.565   2.380   8.701  0.6798 -1.5175 -0.6658
 2766TIP3    H229858   3.677   2.430   8.790 -2.9657  2.6705  2.0029
 2767TIP3   OH229859   0.856   0.190   0.160 -0.0270  0.0365 -0.0442
 2767TIP3    H129860   0.771   0.235   0.157 -0.4541 -0.7511 -0.0193
 2767TIP3    H229861   0.919   0.258   0.137 -0.5590  0.8951  0.9431
 2768TIP3   OH229862   0.438   1.717   0.444 -0.2633 -0.0984 -0.5967
 2768TIP3    H129863   0.403   1.678   0.524  1.2256  0.2874  0.2810
 2768TIP3    H229864   0.463   1.806   0.469  2.1692 -0.6315 -0.8912
 2769TIP3   OH229865   3.681   4.632   8.391  0.2939 -0.2016  0.6355
 2769TIP3    H129866   3.768   4.662   8.366 -0.3681  0.2836 -1.2585
 2769TIP3    H229867   3.630   4.634   8.310 -2.1500  1.7653  2.0474
 2770TIP3   OH229868   2.973   3.132   8.072  0.2500  0.0278  0.4279
 2770TIP3    H129869   3.020   3.066   8.021 -0.5444 -0.6100  0.5126
 2770TIP3    H229870   2.899   3.085   8.110  1.1653  0.3293  2.6998
 2771TIP3   OH229871   2.209   5.319   1.194 -0.0781  0.3877  0.1803
 2771TIP3    H129872   2.172   5.344   1.278 -1.1805  1.4715 -0.5853
 2771TIP3    H229873   2.132   5.308   1.136  0.5240 -2.0854 -0.2651
 2772TIP3   OH229874   0.047   5.433   1.954  0.2556 -0.1729  0.3120
 2772TIP3    H129875   0.142   5.420   1.956  0.2566 -0.6002 -1.0674
 2772TIP3    H229876   0.014   5.355   1.908 -0.6786  0.3416  0.0995
 2773TIP3   OH229877   5.544   1.350   2.168  0.3997  0.4279  0.0743
 2773TIP3    H129878   5.511   1.387   2.085 -2.3893 -0.4136  0.6873
 2773TIP3    H229879   5.524   1.418   2.233 -1.2449 -0.5199  0.6205
 2774TIP3   OH229880   4.227   5.896   3.182  0.1735  0.1560 -0.1953
 2774TIP3    H129881   4.256   5.919   3.270  0.4492 -0.7050 -0.0478
 2774TIP3    H229882   4.237   5.801   3.178  1.4634  0.3029 -1.6004
 2775TIP3   OH229883   4.290   3.776   2.256 -0.0096  0.2336 -0.4586
 2775TIP3    H129884   4.378   3.754   2.226 -0.3409 -2.3767  0.3106
 2775TIP3    H229885   4.288   3.748   2.347 -2.3917 -2.1902 -1.1570
 2776TIP3   OH229886   4.967   4.208   2.909 -0.2032  0.8450 -0.7105
 2776TIP3    H129887   4.944   4.299   2.930  0.0016  0.3674  1.9720
 2776TIP3    H229888   5.058   4.200   2.938  0.6342  0.4019 -3.2611
 2777TIP3   OH229889   4.750   5.931   1.978 -0.1500  0.2236  0.1312
 2777TIP3    H129890   4.718   6.009   2.022  2.2147  0.1627  2.1779
 2777TIP3    H229891   4.729   5.859   2.038 -0.8004 -0.5112 -0.9443
 2778TIP3   OH229892   1.006   6.583   0.193 -0.5304  0.1547 -0.4855
 2778TIP3    H129893   1.072   6.516   0.177 -0.3788  0.4309 -1.0365
 2778TIP3    H229894   0.928   6.550   0.148 -1.1766 -0.7945  1.2161
 2779TIP3   OH229895   5.306   1.878   2.981  0.0617 -0.1680  0.1873
 2779TIP3    H129896   5.365   1.869   3.056  0.7430 -1.5551 -0.4732
 2779TIP3    H229897   5.226   1.916   3.018  0.7125  0.0325  1.4426
 2780TIP3   OH229898   6.596   1.261   7.972  0.1614 -0.2531 -0.6202
 2780TIP3    H129899   6.635   1.342   7.941  1.3896  0.7017  2.9466
 2780TIP3    H229900   6.668   1.198   7.970  0.2492 -0.1846  0.1799
 2781TIP3   OH229901   4.122   6.353   2.663 -0.3325 -0.0161 -0.2245
 2781TIP3    H129902   4.090   6.394   2.744  2.4570 -0.1058  1.0175
 2781TIP3    H229903   4.196   6.407   2.636  0.5980 -1.6600 -1.1033
 2782TIP3   OH229904   3.427   3.825   0.357  0.4393 -0.5671  0.2787
 2782TIP3    H129905   3.348   3.772   0.368  0.4224 -0.3944  1.0280
 2782TIP3    H229906   3.460   3.802   0.269 -0.0619 -1.1421  0.2400
 2783TIP3   OH229907   4.581   5.287   0.992 -0.1876 -0.0415  0.1976
 2783TIP3    H129908   4.550   5.306   1.081 -1.0692 -1.4236  0.2033
 2783TIP3    H229909   4.502   5.260   0.945  0.3106  0.4882 -0.9648
 2784TIP3   OH229910   4.198   1.071   8.154  0.4693 -0.4051  0.0288
 2784TIP3    H129911   4.274   1.022   8.188  2.0998  0.9016 -1.5280
 2784TIP3    H229912   4.145   1.004   8.111  1.0942 -1.2529  0.5283
 2785TIP3   OH229913   0.536   3.572   8.371  0.0645  0.6378 -0.2025
 2785TIP3    H129914   0.539   3.550   8.464 -0.0178 -1.2246 -0.5922
 2785TIP3    H229915   0.531   3.668   8.369  2.2303  0.8828  1.6569
 2786TIP3   OH229916   1.186   2.887   0.514 -0.1214  0.2327  0.2596
 2786TIP3    H129917   1.259   2.826   0.529  0.0845  0.3720 -0.1442
 2786TIP3    H229918   1.182   2.940   0.593  0.1266  0.1301  0.3438
 2787TIP3   OH229919   4.323   1.735   8.419  0.4584 -0.2072  0.0058
 2787TIP3    H129920   4.313   1.808   8.480  3.6997  1.3486 -1.1184
 2787TIP3    H229921   4.303   1.771   8.333  2.2110 -0.5392 -0.5811
 2788TIP3   OH229922   2.320   1.578   8.910  0.2056  0.5023  0.0603
 2788TIP3    H129923   2.259   1.505   8.899 -0.7157  1.1935  0.4538
 2788TIP3    H229924   2.407   1.539   8.901 -0.2847 -0.5788 -0.0575
 2789TIP3   OH229925   2.065   4.916   1.749  0.4924  0.1525  0.3132
 2789TIP3    H129926   2.027   4.846   1.696  1.0923  0.2041 -0.2053
 2789TIP3    H229927   2.046   4.891   1.839  0.6679 -0.6657  0.1339
 2790TIP3   OH229928   4.804   3.439   2.419  0.1194 -0.0830 -0.2502
 2790TIP3    H129929   4.761   3.519   2.449  0.4243  0.0906 -0.2687
 2790TIP3    H229930   4.887   3.469   2.382  0.9591 -0.5544  1.1593
 2791TIP3   OH229931   1.664   6.384   2.029  0.2524 -0.2794  0.6198
 2791TIP3    H129932   1.610   6.390   2.108 -0.2697  3.4363  0.1559
 2791TIP3    H229933   1.623   6.314   1.977 -1.0697 -0.9017  2.4201
 2792TIP3   OH229934   6.461   1.141   0.397  1.0393 -0.0204  0.1017
 2792TIP3    H129935   6.416   1.187   0.326  0.4787  1.2902  1.2451
 2792TIP3    H229936   6.395   1.081   0.432  0.9976  0.0449  0.1358
 2793TIP3   OH229937   2.079   0.829   1.263 -0.0143 -0.0553 -0.4823
 2793TIP3    H129938   2.056   0.774   1.338  0.4569  0.8353  0.3514
 2793TIP3    H229939   2.174   0.823   1.258  0.0122  0.4216 -0.5752
 2794TIP3   OH229940   3.733   0.787   1.703 -0.2052 -0.4677  0.5253
 2794TIP3    H129941   3.769   0.807   1.790 -0.1265 -2.0367  0.8810
 2794TIP3    H229942   3.639   0.776   1.717 -0.5855  1.6762 -0.0548
 2795TIP3   OH229943   5.128   3.911   7.376  0.2256  0.6477  0.2356
 2795TIP3    H129944   5.078   3.836   7.408  1.3543 -0.4561 -0.4970
 2795TIP3    H229945   5.124   3.904   7.281 -1.1630  2.5792  0.0939
 2796TIP3   OH229946   2.220   6.731   2.299 -0.1206 -0.0071 -0.0197
 2796TIP3    H129947   2.144   6.682   2.268 -0.1668  0.4416 -0.6172
 2796TIP3    H229948   2.295   6.676   2.274 -0.2667 -1.0529  1.6374
 2797TIP3   OH229949   4.217   2.624   0.350  0.0952 -0.1075 -0.2117
 2797TIP3    H129950   4.261   2.623   0.435  0.3223  0.0508 -0.3261
 2797TIP3    H229951   4.131   2.661   0.367  0.5215  0.9200 -0.2363
 2798TIP3   OH229952   0.567   0.942   8.504 -0.1490 -0.3790  0.5188
 2798TIP3    H129953   0.512   1.006   8.550 -0.6088 -0.9363  0.7704
 2798TIP3    H229954   0.504   0.883   8.462  0.2755  0.2869 -1.0818
 2799TIP3   OH229955   4.168   1.953   3.399  0.0612  0.3222  0.1983
 2799TIP3    H129956   4.198   1.996   3.319  0.3425  0.6467  0.4744
 2799TIP3    H229957   4.219   1.872   3.403 -1.9368 -1.1237 -1.4198
 2800TIP3   OH229958   0.486   2.199   0.357  0.1728  0.1108 -0.2553
 2800TIP3    H129959   0.477   2.212   0.263  0.4345  1.9046 -0.0613
 2800TIP3    H229960   0.501   2.286   0.392 -0.0069 -0.5145  1.4731
 2801TIP3   OH229961   4.903   1.918   2.625 -0.6933 -0.7095  0.1223
 2801TIP3    H129962   4.858   1.963   2.697 -0.8551  0.4524 -0.6908
 2801TIP3    H229963   4.948   1.845   2.668 -2.0028 -0.9292  1.1857
 2802TIP3   OH229964   0.238   2.879   3.542 -0.2778  0.1357 -0.3657
 2802TIP3    H129965   0.152   2.836   3.541 -0.0135 -0.4378  0.5664
 2802TIP3    H229966   0.236   2.938   3.467 -1.0197 -0.7887 -1.0894
 2803TIP3   OH229967   5.399   6.012   8.587 -0.3766 -0.3877  0.2740
 2803TIP3    H129968   5.428   6.102   8.575  0.1709 -0.6005 -0.0064
 2803TIP3    H229969   5.371   6.008   8.679  2.2247 -0.6655  1.1304
 2804TIP3   OH229970   2.285   5.195   0.375  0.1227 -0.4355  0.5097
 2804TIP3    H129971   2.369   5.241   0.369 -0.2109  0.4657  2.2934
 2804TIP3    H229972   2.250   5.198   0.286  0.8018  1.4434  0.2695
 2805TIP3   OH229973   0.454   2.984   1.348  0.1281  0.3411 -0.2937
 2805TIP3    H129974   0.505   3.065   1.352  2.6567 -1.1401 -0.3342
 2805TIP3    H229975   0.449   2.954   1.439 -0.3730  0.2594 -0.3430
 2806TIP3   OH229976   5.313   1.028   0.162 -0.2138  0.3910 -0.4490
 2806TIP3    H129977   5.353   1.066   0.084  0.8981  0.8512  0.3339
 2806TIP3    H229978   5.385   1.016   0.223 -0.9855 -0.4625  0.3246
 2807TIP3   OH229979   1.210   2.200   1.270  0.0133 -0.3580 -0.0858
 2807TIP3    H129980   1.135   2.250   1.303  0.8966 -0.2684  1.9500
 2807TIP3    H229981   1.228   2.136   1.339  0.9260 -1.3278 -1.1890
 2808TIP3   OH229982   2.631   1.368   1.611 -0.3280  0.1527  0.1629
 2808TIP3    H129983   2.647   1.275   1.625  0.4649  0.2354 -0.1556
 2808TIP3    H229984   2.623   1.377   1.517  1.0787  0.6202  0.0654
 2809TIP3   OH229985   6.113   4.739   3.520 -0.0889  0.5718  0.2159
 2809TIP3    H129986   6.095   4.665   3.461 -1.5973  2.6090 -2.0926
 2809TIP3    H229987   6.207   4.754   3.511  0.0790 -0.4947  0.0262
 2810TIP3   OH229988   1.732   6.684   8.637 -0.3345  0.1665 -0.4845
 2810TIP3    H129989   1.654   6.709   8.586 -0.3028 -0.0314 -0.6309
 2810TIP3    H229990   1.795   6.754   8.619  0.0812 -0.4612 -1.6257
 2811TIP3   OH229991   1.640   6.161   0.772 -0.1210 -0.9395 -0.9167
 2811TIP3    H129992   1.658   6.076   0.811  0.0340 -0.0967  0.9616
 2811TIP3    H229993   1.545   6.161   0.757 -0.5105 -0.6679  1.1766
 2812TIP3   OH229994   3.566   1.593   0.922  0.0040 -0.1535 -0.0705
 2812TIP3    H129995   3.490   1.553   0.964 -0.5190  0.9627  0.0839
 2812TIP3    H229996   3.615   1.632   0.995 -1.4935  2.7888 -0.4802
 2813TIP3   OH229997   0.588   4.348   0.067 -0.0429 -0.3875  0.2693
 2813TIP3    H129998   0.508   4.389   0.033 -0.5828  0.1527  2.0636
 2813TIP3    H229999   0.556   4.280   0.126  0.8372 -0.8937  0.1655
 2814TIP3   OH230000   5.457   1.196   0.985  0.3756 -0.0002  0.4360
 2814TIP3    H130001   5.377   1.247   0.973  0.6071  0.8872  2.2585
 2814TIP3    H230002   5.487   1.177   0.896 -1.5946  0.0328 -0.2820
 2815TIP3   OH230003   2.468   3.045   2.008  0.1230  0.0671 -0.2652
 2815TIP3    H130004   2.497   3.011   1.924  1.2449  0.2301  0.0425
 2815TIP3    H230005   2.543   3.093   2.042 -0.7905  1.2420  0.1801
 2816TIP3   OH230006   2.704   2.417   7.979  0.2941  0.3895 -0.3764
 2816TIP3    H130007   2.626   2.473   7.979  1.2396  1.7977  1.1872
 2816TIP3    H230008   2.758   2.450   8.050  1.4682 -1.7936 -0.1424
 2817TIP3   OH230009   5.525   0.133   8.867 -0.3042  0.7256  0.0002
 2817TIP3    H130010   5.540   0.225   8.887  0.4352  0.8773 -1.1121
 2817TIP3    H230011   5.454   0.133   8.804  0.6103  0.6753 -1.0718
 2818TIP3   OH230012   6.533   0.142   1.707 -0.7101 -0.1509  0.0507
 2818TIP3    H130013   6.523   0.047   1.711 -1.4836 -0.0805  0.0389
 2818TIP3    H230014   6.447   0.176   1.731  0.4872  0.6282  3.8472
 2819TIP3   OH230015   3.026   4.005   0.506 -0.4951  0.0489 -0.1444
 2819TIP3    H130016   3.120   4.000   0.488 -0.8295 -1.1054 -1.7393
 2819TIP3    H230017   2.985   3.955   0.436 -2.4080  1.6747 -0.2902
 2820TIP3   OH230018   3.304   6.731   1.817 -0.0385 -0.0750  0.0973
 2820TIP3    H130019   3.252   6.799   1.860 -0.0272 -0.5847  0.9338
 2820TIP3    H230020   3.252   6.652   1.828  1.5364 -0.9059  2.2525
 2821TIP3   OH230021   2.780   2.062   2.715  0.1189 -0.0453  0.0395
 2821TIP3    H130022   2.793   2.033   2.805 -0.0988 -0.9960 -0.2304
 2821TIP3    H230023   2.869   2.076   2.681  0.1909  0.8988  0.5719
 2822TIP3   OH230024   2.258   4.392   0.177 -0.3930  0.3841 -0.6127
 2822TIP3    H130025   2.353   4.390   0.187 -0.5469 -0.9370  0.9495
 2822TIP3    H230026   2.237   4.484   0.159  1.1092  0.8284 -0.1804
 2823TIP3   OH230027   4.563   4.686   2.012  0.0201 -0.0882 -0.2372
 2823TIP3    H130028   4.607   4.687   1.928 -2.8037  1.8933 -1.8572
 2823TIP3    H230029   4.481   4.640   1.996 -2.2721  3.3899  0.2554
 2824TIP3   OH230030   6.459   5.926   0.776  0.2033  0.0876  0.6838
 2824TIP3    H130031   6.389   5.985   0.803  1.3449  0.9613  1.9107
 2824TIP3    H230032   6.488   5.884   0.857 -0.6268 -2.2814 -0.1702
 2825TIP3   OH230033   1.274   2.222   0.303 -0.0595  0.7389  0.0483
 2825TIP3    H130034   1.341   2.279   0.265  0.4200  0.6600  0.7610
 2825TIP3    H230035   1.294   2.136   0.268  1.3515  0.3534  1.6322
 2826TIP3   OH230036   0.629   2.127   0.849 -0.2135  0.3356  0.2661
 2826TIP3    H130037   0.624   2.032   0.843 -1.9559  0.4051  0.2455
 2826TIP3    H230038   0.699   2.143   0.912  0.9524 -0.9151 -0.6515
 2827TIP3   OH230039   2.067   0.730   7.635  0.1184 -0.6858  0.2485
 2827TIP3    H130040   2.024   0.811   7.609 -2.2333 -2.4813 -1.9129
 2827TIP3    H230041   2.161   0.750   7.630 -0.3819  1.7068 -0.7854
 2828TIP3   OH230042   3.214   1.680   3.023  0.3255 -0.4682  0.3772
 2828TIP3    H130043   3.239   1.720   2.940  0.1936 -0.1691  0.4811
 2828TIP3    H230044   3.144   1.736   3.057  0.1756 -0.7578  0.5479
 2829TIP3   OH230045   3.645   1.297   1.787 -0.5259  0.3845 -0.6279
 2829TIP3    H130046   3.679   1.335   1.868 -0.9917  1.4368 -0.9128
 2829TIP3    H230047   3.723   1.268   1.740 -0.3454 -2.2470  1.1246
 2830TIP3   OH230048   5.434   0.038   0.625  0.2474 -0.0327  0.4725
 2830TIP3    H130049   5.508   0.012   0.570  1.0869  0.3450  1.3970
 2830TIP3    H230050   5.357   0.022   0.570  0.9797 -0.7768 -0.3807
 2831TIP3   OH230051   0.483   2.502   0.026  0.0088  0.6688  0.1948
 2831TIP3    H130052   0.523   2.543   0.103 -0.4667  0.4820  0.5499
 2831TIP3    H230053   0.394   2.538   0.023 -0.6896 -0.8887  0.9774
 2832TIP3   OH230054   0.380   0.390   0.230 -0.2352  0.3210  0.1783
 2832TIP3    H130055   0.347   0.450   0.164 -0.9325  0.0668  0.2868
 2832TIP3    H230056   0.302   0.363   0.279  0.0047 -0.9821 -0.1230
 2833TIP3   OH230057   3.228   4.131   7.805 -0.8471 -0.2203 -0.0160
 2833TIP3    H130058   3.249   4.094   7.719  0.5061  1.2786 -0.3695
 2833TIP3    H230059   3.141   4.168   7.794  0.6314  3.1192 -1.9231
 2834TIP3   OH230060   5.625   1.435   7.644  0.2329 -0.1710 -0.3666
 2834TIP3    H130061   5.643   1.490   7.568 -1.5223  2.4548  0.9670
 2834TIP3    H230062   5.654   1.487   7.719  0.5358 -2.0419  0.8948
 2835TIP3   OH230063   5.863   4.238   8.046 -0.3046  0.5904 -0.2293
 2835TIP3    H130064   5.892   4.326   8.069 -0.8047  1.3406 -2.2250
 2835TIP3    H230065   5.789   4.252   7.988 -1.2902 -1.2022  0.5202
 2836TIP3   OH230066   5.190   2.479   1.200 -0.0932  0.6583 -0.4259
 2836TIP3    H130067   5.148   2.448   1.120 -0.6246 -1.6471  0.6755
 2836TIP3    H230068   5.124   2.468   1.268  1.2503 -0.0794  0.8178
 2837TIP3   OH230069   6.275   4.001   8.633 -0.1883  0.2685  0.0278
 2837TIP3    H130070   6.281   4.064   8.561  0.5794  0.0055 -0.1476
 2837TIP3    H230071   6.320   3.923   8.600 -4.3213 -1.8838 -1.2791
 2838TIP3   OH230072   2.329   4.903   0.317  0.1680 -0.4172 -0.5907
 2838TIP3    H130073   2.327   4.991   0.354 -2.0197 -1.1177  1.1676
 2838TIP3    H230074   2.262   4.904   0.249 -0.4176 -0.9058 -0.0349
 2839TIP3   OH230075   0.244   5.943   0.594 -0.4176  0.1104  0.1466
 2839TIP3    H130076   0.256   5.949   0.499  2.0645  0.9444  0.4363
 2839TIP3    H230077   0.155   5.975   0.609 -0.8637 -0.0619 -1.8897
 2840TIP3   OH230078   0.780   2.811   2.240 -0.1030  0.1835  0.0774
 2840TIP3    H130079   0.801   2.842   2.328  0.1561 -2.1665  0.9174
 2840TIP3    H230080   0.687   2.789   2.244  0.3763 -2.0555  0.5484
 2841TIP3   OH230081   1.561   5.127   1.289 -0.2787  0.4418  0.6128
 2841TIP3    H130082   1.650   5.117   1.255 -0.3629  0.2502  0.4458
 2841TIP3    H230083   1.511   5.160   1.215 -0.7611 -1.2871  0.1340
 2842TIP3   OH230084   1.522   2.621   2.283 -0.4026 -0.1635 -0.4539
 2842TIP3    H130085   1.587   2.561   2.246  0.9163 -1.0233  2.8665
 2842TIP3    H230086   1.560   2.708   2.271  0.2657 -0.4699 -0.6128
 2843TIP3   OH230087   3.739   3.064   2.365 -0.2288  0.8462  0.2984
 2843TIP3    H130088   3.645   3.083   2.367 -0.2613  0.7750 -0.3639
 2843TIP3    H230089   3.757   3.018   2.448 -0.6845  1.2688  0.6366
 2844TIP3   OH230090   1.202   0.245   2.086  0.1019  0.5885 -0.6111
 2844TIP3    H130091   1.201   0.220   2.179 -1.4368 -1.0479 -1.0186
 2844TIP3    H230092   1.226   0.337   2.087  2.7828  0.0031  1.2299
 2845TIP3   OH230093   0.513   1.325   1.790 -0.1488 -0.0850 -0.1298
 2845TIP3    H130094   0.479   1.255   1.847 -1.4390  1.7279  1.4926
 2845TIP3    H230095   0.464   1.315   1.709 -2.3409  0.4700  1.0284
 2846TIP3   OH230096   0.775   0.290   0.742  0.4358  0.2295 -0.1401
 2846TIP3    H130097   0.769   0.374   0.696 -1.1749  0.2233 -0.0031
 2846TIP3    H230098   0.861   0.257   0.720  0.7877  1.5441 -0.8620
 2847TIP3   OH230099   4.867   2.558   8.190  0.1548 -0.0129  0.3211
 2847TIP3    H130100   4.846   2.637   8.141  0.8788 -0.9370 -1.6005
 2847TIP3    H230101   4.960   2.544   8.174  0.4051 -0.4232  1.9350
 2848TIP3   OH230102   5.047   4.340   0.727 -0.2447  0.2112 -0.0310
 2848TIP3    H130103   4.967   4.382   0.696 -1.9189 -2.0042  1.0083
 2848TIP3    H230104   5.026   4.311   0.816  1.8545 -0.1174  0.4033
 2849TIP3   OH230105   5.460   1.865   2.370  0.0434 -0.0478 -0.1521
 2849TIP3    H130106   5.426   1.892   2.284  0.1271  0.0461 -0.1551
 2849TIP3    H230107   5.384   1.870   2.428 -0.2059 -0.8700 -0.3838
 2850TIP3   OH230108   1.005   6.106   2.769  0.4874  0.1334 -0.4159
 2850TIP3    H130109   0.991   6.011   2.770 -1.7662  0.4149  0.1016
 2850TIP3    H230110   0.960   6.136   2.690 -0.2007  0.9310  0.2698
 2851TIP3   OH230111   4.964   3.981   8.516  0.2058 -0.1725 -0.3649
 2851TIP3    H130112   5.036   3.982   8.454  0.0984 -2.2603 -0.5997
 2851TIP3    H230113   5.005   3.973   8.602  0.3138 -2.4492 -0.5649
 2852TIP3   OH230114   5.519   1.711   0.898 -0.1793  0.0122  0.6056
 2852TIP3    H130115   5.568   1.630   0.909  0.2794  0.2208  0.1402
 2852TIP3    H230116   5.440   1.699   0.951 -0.1573 -0.7717  0.4662
 2853TIP3   OH230117   6.392   2.748   2.543 -0.0799 -0.0673 -0.1044
 2853TIP3    H130118   6.304   2.745   2.579 -0.2459  1.2524 -0.3455
 2853TIP3    H230119   6.380   2.773   2.452  0.5266 -0.0819 -0.1927
 2854TIP3   OH230120   4.730   6.265   3.694 -0.0745  0.1844  0.8914
 2854TIP3    H130121   4.803   6.204   3.702 -0.7384 -0.7224  0.2809
 2854TIP3    H230122   4.743   6.307   3.609 -0.0752  0.2978  0.9460
 2855TIP3   OH230123   0.168   2.171   0.862 -0.2253 -0.3915 -0.2888
 2855TIP3    H130124   0.251   2.133   0.835  1.0270  1.7622  0.2833
 2855TIP3    H230125   0.146   2.126   0.944  3.2091  2.4026  2.5173
 2856TIP3   OH230126   2.866   3.354   0.123  0.1552  0.5941  0.4653
 2856TIP3    H130127   2.793   3.319   0.072  0.1766 -0.3317  1.0393
 2856TIP3    H230128   2.936   3.290   0.111  0.8467  1.4243 -0.0020
 2857TIP3   OH230129   2.766   2.771   1.412 -0.7027 -0.2001  0.2416
 2857TIP3    H130130   2.810   2.745   1.332 -0.1245 -1.8302  1.0381
 2857TIP3    H230131   2.706   2.699   1.431 -0.6495  0.0403  1.3913
 2858TIP3   OH230132   0.712   4.617   8.391 -0.0464 -0.6623  0.6283
 2858TIP3    H130133   0.626   4.609   8.350 -0.1851  0.1079  0.7476
 2858TIP3    H230134   0.722   4.711   8.408 -0.0884 -0.9700  2.5612
 2859TIP3   OH230135   2.264   6.699   0.956  0.0473  0.1853  0.9960
 2859TIP3    H130136   2.169   6.705   0.949  0.0918  1.0047  0.9159
 2859TIP3    H230137   2.296   6.717   0.868  0.2492 -1.1926  0.7749
 2860TIP3   OH230138   6.648   5.169   1.442  0.6850 -0.3812 -0.0523
 2860TIP3    H130139   6.570   5.114   1.445  0.8406 -0.7089 -1.4228
 2860TIP3    H230140   6.715   5.115   1.400  1.3366  0.2801  0.1007
 2861TIP3   OH230141   4.611   1.970   3.035 -0.3078  0.1732 -0.4456
 2861TIP3    H130142   4.632   2.063   3.044  2.2524  0.0323 -3.2342
 2861TIP3    H230143   4.596   1.939   3.125  0.3306  2.9228  0.6910
 2862TIP3   OH230144   3.501   2.913   0.301 -0.7228 -0.1342  0.3752
 2862TIP3    H130145   3.494   2.904   0.396 -1.9405  0.4465  0.3677
 2862TIP3    H230146   3.595   2.907   0.283 -0.3830  0.6130  1.7172
 2863TIP3   OH230147   4.431   4.916   8.239  0.1590 -0.7393 -0.1044
 2863TIP3    H130148   4.447   4.836   8.189  1.4918 -0.4601 -0.1769
 2863TIP3    H230149   4.380   4.972   8.181 -2.9364 -2.4177  0.8132
 2864TIP3   OH230150   0.332   0.253   2.027  0.6570  0.2091 -0.8230
 2864TIP3    H130151   0.333   0.182   1.963  1.6599  0.1402 -0.7474
 2864TIP3    H230152   0.315   0.210   2.111 -1.2871  0.3681 -1.0878
 2865TIP3   OH230153   3.800   1.745   8.825  0.2547 -0.1943  0.0361
 2865TIP3    H130154   3.843   1.827   8.849 -0.0769  0.3114 -0.9989
 2865TIP3    H230155   3.866   1.696   8.776  0.2128 -0.1954 -0.0203
 2866TIP3   OH230156   0.960   1.306   0.358 -0.5552  0.1295  0.1600
 2866TIP3    H130157   0.881   1.252   0.360 -1.2022  1.0791  0.5852
 2866TIP3    H230158   0.929   1.396   0.358  0.5197  0.5193 -0.4609
 2867TIP3   OH230159   6.498   1.778   0.457  0.6303 -0.1770  0.3312
 2867TIP3    H130160   6.406   1.756   0.442  0.5113  0.8279 -0.5286
 2867TIP3    H230161   6.497   1.867   0.491  1.2433 -0.5187  1.2930
 2868TIP3   OH230162   1.849   5.838   2.736 -0.1424  0.4793 -0.4179
 2868TIP3    H130163   1.914   5.869   2.673  0.2278  1.8067  0.5666
 2868TIP3    H230164   1.872   5.746   2.750  1.0916  0.7333 -0.6256
 2869TIP3   OH230165   3.753   0.466   3.303  0.3748  0.0302  0.6136
 2869TIP3    H130166   3.729   0.553   3.334 -0.5659 -0.3912  1.0914
 2869TIP3    H230167   3.680   0.439   3.247  0.6355 -0.4814  0.5145
 2870TIP3   OH230168   3.468   4.422   1.868  0.2103 -0.6968 -0.3651
 2870TIP3    H130169   3.528   4.352   1.891 -0.5996 -1.1949  0.2899
 2870TIP3    H230170   3.484   4.490   1.934  0.6491 -0.4621 -0.7070
 2871TIP3   OH230171   5.286   1.882   2.148 -0.3241 -0.1624  0.1054
 2871TIP3    H130172   5.204   1.848   2.111 -1.0736  1.1269  0.5260
 2871TIP3    H230173   5.268   1.974   2.166  1.5474  0.4120 -0.7265
 2872TIP3   OH230174   3.875   4.164   0.739 -0.5494  0.2128  0.0928
 2872TIP3    H130175   3.791   4.206   0.758 -0.0187  1.0821  0.6079
 2872TIP3    H230176   3.906   4.208   0.660 -1.2040 -1.0765 -0.9093
 2873TIP3   OH230177   3.081   4.685   8.906  0.4478 -0.0310 -0.1695
 2873TIP3    H130178   3.170   4.680   8.872 -0.0644  1.0155 -1.7998
 2873TIP3    H230179   3.029   4.632   8.846  0.0027 -0.9775  1.0052
 2874TIP3   OH230180   3.320   2.281   2.745  0.0970 -0.2528 -0.2268
 2874TIP3    H130181   3.242   2.315   2.790 -0.7043 -1.2887 -0.7841
 2874TIP3    H230182   3.371   2.359   2.724 -1.0231  0.4996 -0.2807
 2875TIP3   OH230183   3.068   6.605   1.834  0.0853  0.0740 -0.1927
 2875TIP3    H130184   3.075   6.510   1.838 -1.1232  0.0110  0.9867
 2875TIP3    H230185   2.979   6.622   1.803  0.0999  0.8095  0.1325
 2876TIP3   OH230186   4.062   6.598   3.238  0.0019  0.0963  0.2039
 2876TIP3    H130187   4.147   6.623   3.201  1.1348  0.3310  2.7653
 2876TIP3    H230188   4.018   6.681   3.254 -0.7053 -0.0226 -1.0241
 2877TIP3   OH230189   4.087   4.004   2.674 -0.0904 -0.5784  0.1756
 2877TIP3    H130190   4.104   4.033   2.585  0.4125 -2.2762 -0.3185
 2877TIP3    H230191   4.161   3.948   2.696 -1.2130 -1.8739  0.8608
 2878TIP3   OH230192   3.737   0.546   1.563  0.1003 -0.4590  0.4965
 2878TIP3    H130193   3.757   0.626   1.611 -1.7275  0.0449  0.4714
 2878TIP3    H230194   3.722   0.480   1.631  0.9364 -0.6302  0.5269
 2879TIP3   OH230195   3.605   2.086   8.825  0.2391  0.1120  0.4047
 2879TIP3    H130196   3.615   2.056   8.734 -0.1885 -1.1035  0.7300
 2879TIP3    H230197   3.583   2.179   8.818  1.8153  0.4386 -0.6642
 2880TIP3   OH230198   4.570   6.448   0.581 -0.1293  0.4689 -0.5045
 2880TIP3    H130199   4.597   6.473   0.493 -1.4928  3.0496 -0.2886
 2880TIP3    H230200   4.651   6.437   0.630  0.6337 -0.5553 -1.9217
 2881TIP3   OH230201   3.503   0.099   0.776  0.1820 -0.0728  0.0493
 2881TIP3    H130202   3.479   0.185   0.740 -0.3665  0.0530  0.7009
 2881TIP3    H230203   3.433   0.079   0.837 -0.7185 -1.8471 -1.4604
 2882TIP3   OH230204   0.555   6.359   1.546  0.6927  0.0381  0.2099
 2882TIP3    H130205   0.623   6.423   1.566  2.7845 -2.1672  0.7194
 2882TIP3    H230206   0.482   6.383   1.603  1.2059  2.1935  0.0393
 2883TIP3   OH230207   1.319   0.854   2.263 -0.1785  0.1455  0.2446
 2883TIP3    H130208   1.278   0.931   2.223  0.9127 -0.0132 -1.2675
 2883TIP3    H230209   1.285   0.852   2.352 -1.8982  1.1366 -0.3386
 2884TIP3   OH230210   3.999   1.384   1.013  0.7079 -0.0314  0.2039
 2884TIP3    H130211   4.016   1.345   1.099 -0.5424 -0.5175  0.2659
 2884TIP3    H230212   4.081   1.377   0.966  0.9028 -1.4976  0.7134
 2885TIP3   OH230213   0.451   4.342   7.609  0.4781  0.4392  0.2411
 2885TIP3    H130214   0.359   4.345   7.584 -0.0802 -0.4254  2.0506
 2885TIP3    H230215   0.496   4.308   7.532 -0.8511 -0.0201 -0.3490
 2886TIP3   OH230216   6.508   2.822   1.151 -0.2659 -0.2854 -0.4279
 2886TIP3    H130217   6.428   2.791   1.108 -0.1388 -0.6176 -0.4263
 2886TIP3    H230218   6.502   2.918   1.147 -2.0408 -0.1818  2.0311
 2887TIP3   OH230219   1.281   2.464   2.798 -0.5465  0.2439  0.4765
 2887TIP3    H130220   1.351   2.413   2.758  0.8418  1.2043  1.5853
 2887TIP3    H230221   1.255   2.414   2.875 -1.4613 -0.3474 -0.1853
 2888TIP3   OH230222   1.508   5.650   0.381 -0.1605 -0.3416  0.0224
 2888TIP3    H130223   1.492   5.601   0.462 -1.5741  0.2544  0.1213
 2888TIP3    H230224   1.460   5.601   0.314  0.1520 -0.2490 -0.2694
 2889TIP3   OH230225   2.636   4.601   2.597  0.4765 -0.4224  0.6778
 2889TIP3    H130226   2.549   4.564   2.585 -0.7082  2.5204 -0.7808
 2889TIP3    H230227   2.643   4.617   2.691 -0.3499 -1.1113  0.8641
 2890TIP3   OH230228   3.244   0.222   8.771 -0.3364  0.1139 -0.1220
 2890TIP3    H130229   3.175   0.163   8.800  0.2954 -0.9359 -0.6840
 2890TIP3    H230230   3.201   0.280   8.707 -0.8995  0.1023  0.2415
 2891TIP3   OH230231   0.936   3.553   2.079 -0.4801  0.1972 -0.1163
 2891TIP3    H130232   0.877   3.578   2.008  0.4247  4.2978  0.3331
 2891TIP3    H230233   0.908   3.605   2.154  1.9727  0.1924  0.9074
 2892TIP3   OH230234   5.298   0.076   8.689 -0.8658 -0.2038 -0.1326
 2892TIP3    H130235   5.269  -0.014   8.707 -0.4595 -0.8536 -2.3961
 2892TIP3    H230236   5.227   0.131   8.721 -1.8525 -1.4193 -0.1376
 2893TIP3   OH230237   1.905   1.054   2.206  0.0805 -0.8648  0.0691
 2893TIP3    H130238   1.892   1.065   2.300 -1.5042  0.5049 -0.2775
 2893TIP3    H230239   1.957   1.129   2.179  1.6001 -1.8907  0.0113
 2894TIP3   OH230240   2.743   2.714   7.829 -0.1453  0.4966 -0.8278
 2894TIP3    H130241   2.656   2.675   7.812 -0.2859  0.8801 -0.9875
 2894TIP3    H230242   2.770   2.750   7.745 -0.0288  0.7812 -0.6668
 2895TIP3   OH230243   5.527   4.231   7.811 -0.1901 -0.4095  0.8803
 2895TIP3    H130244   5.550   4.192   7.726 -2.3065  1.1602 -0.5436
 2895TIP3    H230245   5.446   4.187   7.836 -0.4462  0.2471  1.2463
 2896TIP3   OH230246   1.698   6.641   1.520 -0.1925  0.1070 -0.0785
 2896TIP3    H130247   1.726   6.653   1.611 -0.6474  1.3711 -0.0869
 2896TIP3    H230248   1.746   6.709   1.471  1.2582 -1.5535 -1.0671
 2897TIP3   OH230249   1.862   3.559   8.502  0.1126  0.1283 -0.4736
 2897TIP3    H130250   1.907   3.641   8.522 -2.2291  1.3930 -0.0647
 2897TIP3    H230251   1.811   3.578   8.424 -0.7053 -0.8490 -0.1966
 2898TIP3   OH230252   2.661   5.777   1.773  0.7075  0.6423  0.4371
 2898TIP3    H130253   2.674   5.688   1.739  1.3485  0.3056  1.5254
 2898TIP3    H230254   2.715   5.832   1.716  2.4264 -0.0162  1.3564
 2899TIP3   OH230255   4.483   2.873   0.200  0.4696  0.1251 -0.3765
 2899TIP3    H130256   4.494   2.851   0.108  0.0034  0.9844 -0.6437
 2899TIP3    H230257   4.405   2.928   0.203 -0.8498 -1.6823  0.8085
 2900TIP3   OH230258   2.599   3.865   0.532 -0.4633 -0.1703  0.8076
 2900TIP3    H130259   2.536   3.925   0.491 -2.6621 -2.0988  1.1548
 2900TIP3    H230260   2.555   3.835   0.611  1.1815 -1.1333  1.3951
 2901TIP3   OH230261   0.458   3.320   0.496  0.0322  0.8538  0.2139
 2901TIP3    H130262   0.485   3.241   0.543 -0.8105  0.0724 -0.5839
 2901TIP3    H230263   0.511   3.320   0.416  0.7735  1.6744  0.6730
 2902TIP3   OH230264   1.634   1.631   8.183  0.1013 -0.4591 -0.3694
 2902TIP3    H130265   1.539   1.621   8.174  0.0417  0.8982 -1.7952
 2902TIP3    H230266   1.647   1.726   8.187  1.4521 -0.5910 -1.1751
 2903TIP3   OH230267   4.151   4.268   8.163 -0.1884 -0.0753 -0.4958
 2903TIP3    H130268   4.238   4.254   8.125 -0.9371 -0.2687 -2.2054
 2903TIP3    H230269   4.134   4.188   8.212 -0.2525 -0.9511 -1.8958
 2904TIP3   OH230270   6.755   4.269   1.605  0.1681  0.0255 -0.3731
 2904TIP3    H130271   6.792   4.352   1.633 -2.4108  1.0903  0.1509
 2904TIP3    H230272   6.824   4.205   1.623  1.6142  1.8053  0.7862
 2905TIP3   OH230273   0.674   6.449   2.085 -0.3915  0.3774 -0.3845
 2905TIP3    H130274   0.701   6.537   2.060 -1.2943  0.0755 -2.6007
 2905TIP3    H230275   0.599   6.463   2.144  1.1467  1.0777  1.5331
 2906TIP3   OH230276   2.430   2.234   0.379 -0.0095  0.0143 -0.4209
 2906TIP3    H130277   2.428   2.265   0.289 -0.7147  1.5397  0.0748
 2906TIP3    H230278   2.376   2.155   0.379 -1.9639  1.2821 -0.9361
 2907TIP3   OH230279   4.682   5.621   2.918 -0.2485  0.0235  0.5230
 2907TIP3    H130280   4.690   5.608   2.824  1.3387  0.3301  0.5793
 2907TIP3    H230281   4.637   5.544   2.950 -1.2953  0.1646 -0.5457
 2908TIP3   OH230282   0.795   6.582   7.602  0.0121 -0.2661  0.5445
 2908TIP3    H130283   0.742   6.539   7.669 -1.4985  0.1379 -0.3285
 2908TIP3    H230284   0.814   6.513   7.538 -0.5438 -0.1423  0.2381
 2909TIP3   OH230285   1.157   0.990   8.622  0.2410 -0.2028 -0.1278
 2909TIP3    H130286   1.116   0.924   8.566 -0.3131  0.3461 -0.3786
 2909TIP3    H230287   1.184   0.942   8.700 -3.2645 -0.1620  1.2789
 2910TIP3   OH230288   0.758   1.493   0.737  0.0163 -0.3660  0.4397
 2910TIP3    H130289   0.762   1.398   0.724  1.2586  0.0032 -2.6632
 2910TIP3    H230290   0.666   1.510   0.759 -0.4439 -2.1783  0.0864
 2911TIP3   OH230291   0.956   4.768   7.967 -0.3416 -0.1601  0.1343
 2911TIP3    H130292   0.995   4.785   8.052 -0.7756  0.2426  0.2585
 2911TIP3    H230293   0.887   4.834   7.959  0.6823  0.8233 -1.1776
 2912TIP3   OH230294   3.008   2.273   2.846  0.1279 -0.6724  0.1090
 2912TIP3    H130295   2.923   2.264   2.891  0.2080  1.5424  0.8770
 2912TIP3    H230296   3.001   2.218   2.769 -1.2347 -2.1369  1.2037
 2913TIP3   OH230297   3.399   5.078   0.120 -0.0311 -0.0781 -1.1197
 2913TIP3    H130298   3.324   5.020   0.110 -0.4284  0.1325  0.3882
 2913TIP3    H230299   3.371   5.142   0.186  1.1892  0.4863 -1.1217
 2914TIP3   OH230300   3.016   6.630   0.471  0.1923 -0.6442  0.0630
 2914TIP3    H130301   2.942   6.631   0.411 -0.8338 -0.7802  1.2992
 2914TIP3    H230302   3.037   6.537   0.482  0.6643 -0.5990 -0.4099
 2915TIP3   OH230303   2.824   6.347   2.734  0.0994  0.5932 -0.3443
 2915TIP3    H130304   2.848   6.261   2.769  0.8997  0.8951 -0.1282
 2915TIP3    H230305   2.895   6.405   2.762 -0.6278  1.4129 -0.1474
 2916TIP3   OH230306   4.256   2.841   1.765  0.1414 -0.9471 -0.5640
 2916TIP3    H130307   4.337   2.893   1.766  1.7596 -3.2640  0.8344
 2916TIP3    H230308   4.227   2.840   1.856 -1.9591  0.4610 -1.1646
 2917TIP3   OH230309   1.162   2.820   7.917 -0.2802  0.9388  0.1358
 2917TIP3    H130310   1.159   2.726   7.935  0.1388  0.6808 -1.0935
 2917TIP3    H230311   1.162   2.861   8.004  0.1591 -0.2140  0.6928
 2918TIP3   OH230312   6.384   3.235   1.820 -0.2781  0.3914  0.5844
 2918TIP3    H130313   6.438   3.220   1.743  0.6343  2.7909  0.6848
 2918TIP3    H230314   6.300   3.264   1.786  0.4412  2.4438  0.4243
 2919TIP3   OH230315   1.883   0.790   1.749  0.0387  0.3584  0.7792
 2919TIP3    H130316   1.815   0.852   1.774  0.0596  0.4484  0.6103
 2919TIP3    H230317   1.873   0.718   1.811  1.3303  1.4380  2.3158
 2920TIP3   OH230318   0.116   1.979   2.416  0.0831 -0.0388  0.0446
 2920TIP3    H130319   0.055   1.970   2.343  1.0274  0.3755 -0.8117
 2920TIP3    H230320   0.060   1.973   2.494 -1.1606  1.0235 -0.7125
 2921TIP3   OH230321   5.043   0.836   2.704 -0.4641  0.3191  0.2896
 2921TIP3    H130322   5.103   0.799   2.769 -0.5008  0.1388  0.2222
 2921TIP3    H230323   5.026   0.925   2.735 -1.9934 -0.3706  1.5919
 2922TIP3   OH230324   1.570   2.248   8.690  0.2878  0.2750 -0.1594
 2922TIP3    H130325   1.655   2.233   8.649 -0.0439 -1.0858 -0.3757
 2922TIP3    H230326   1.582   2.225   8.782  0.2513  0.4430 -0.1125
 2923TIP3   OH230327   2.875   3.723   7.318  0.5905 -0.0572 -0.3931
 2923TIP3    H130328   2.902   3.784   7.250 -0.2767  1.5698  0.6329
 2923TIP3    H230329   2.887   3.636   7.280  2.0318  0.7358 -1.8555
 2924TIP3   OH230330   6.564   4.647   2.975 -0.1175  0.1649  0.0579
 2924TIP3    H130331   6.641   4.644   3.031  1.0818 -0.3455 -1.5387
 2924TIP3    H230332   6.520   4.563   2.991 -1.5209  1.2220  2.4227
 2925TIP3   OH230333   4.755   2.596   2.683 -0.1471 -0.1167  0.2463
 2925TIP3    H130334   4.671   2.574   2.723 -0.4205  0.9166  0.2835
 2925TIP3    H230335   4.780   2.679   2.725 -0.0738  0.6030 -1.1671
 2926TIP3   OH230336   1.956   5.664   0.657  0.4888  0.4848  0.5138
 2926TIP3    H130337   1.926   5.579   0.690  0.8342  0.2574  0.2448
 2926TIP3    H230338   1.879   5.720   0.664 -0.2301 -0.2877 -0.8665
 2927TIP3   OH230339   6.330   0.216   8.907  0.3977 -0.5160 -0.0450
 2927TIP3    H130340   6.275   0.231   8.984  0.9650 -1.6923  0.6073
 2927TIP3    H230341   6.350   0.304   8.876  0.9534  0.0349  1.7339
 2928TIP3   OH230342   4.492   2.233   0.866  0.2199  0.2522 -0.2484
 2928TIP3    H130343   4.490   2.151   0.817 -0.1447  0.2247 -0.1858
 2928TIP3    H230344   4.406   2.272   0.854  0.7811  1.2378 -1.2965
 2929TIP3   OH230345   5.817   0.631   8.349  0.5393 -0.1998 -0.8632
 2929TIP3    H130346   5.741   0.578   8.325  1.0708 -2.0555  1.2868
 2929TIP3    H230347   5.876   0.571   8.394  2.1366  1.7684 -0.1610
 2930TIP3   OH230348   2.091   3.785   1.403 -0.5048  0.0702  0.4118
 2930TIP3    H130349   2.128   3.814   1.486  0.7742 -0.1923 -0.0508
 2930TIP3    H230350   2.166   3.768   1.347 -1.3345  2.2624 -1.5362
 2931TIP3   OH230351   5.579   0.682   8.210  0.0795 -0.0171 -0.2925
 2931TIP3    H130352   5.496   0.708   8.171  0.5558  0.8425 -0.7711
 2931TIP3    H230353   5.555   0.640   8.293 -0.8878 -0.9281 -1.0109
 2932TIP3   OH230354   2.230   5.935   2.858  0.3945 -0.7746  0.2744
 2932TIP3    H130355   2.213   5.933   2.952 -0.8341 -0.6748  0.0615
 2932TIP3    H230356   2.171   6.002   2.824  1.8570  0.2490 -0.3871
 2933TIP3   OH230357   5.900   3.370   2.484  0.0550 -0.5894 -0.7458
 2933TIP3    H130358   5.967   3.436   2.465 -0.2709 -0.2077 -0.5956
 2933TIP3    H230359   5.947   3.287   2.483  0.6354 -0.2833 -0.1270
 2934TIP3   OH230360   5.888   1.477   0.112 -0.1059  0.0454 -0.0871
 2934TIP3    H130361   5.974   1.470   0.070 -0.6497 -0.4461 -1.1421
 2934TIP3    H230362   5.844   1.547   0.064 -1.3022 -1.5420 -1.3746
 2935TIP3   OH230363   5.427   5.444   0.472 -0.3493 -0.3748 -0.1928
 2935TIP3    H130364   5.438   5.394   0.553  2.9532 -0.4943 -0.5706
 2935TIP3    H230365   5.462   5.386   0.404 -1.8852  0.2296 -1.5623
 2936TIP3   OH230366   5.081   0.007   0.823 -0.0525  0.3375  0.3976
 2936TIP3    H130367   4.995   0.037   0.793  0.5682  2.8999  1.0038
 2936TIP3    H230368   5.132  -0.002   0.743 -0.2807  0.8162  0.1962
 2937TIP3   OH230369   4.185   5.374   3.058 -0.1589  0.5871  0.1374
 2937TIP3    H130370   4.102   5.361   3.104 -0.9987 -0.6547 -1.6003
 2937TIP3    H230371   4.252   5.340   3.118 -1.3729 -2.5964 -0.1475
 2938TIP3   OH230372   0.770   2.543   1.098 -0.2988 -0.1721 -0.2646
 2938TIP3    H130373   0.791   2.488   1.173 -1.5533  0.4092  0.5553
 2938TIP3    H230374   0.685   2.511   1.068  0.6642 -1.1067 -2.1565
 2939TIP3   OH230375   3.226   1.349   2.057 -0.2980  0.6243  0.0086
 2939TIP3    H130376   3.233   1.268   2.107 -0.2394 -0.2503 -1.3531
 2939TIP3    H230377   3.316   1.381   2.052 -0.1747  0.2492 -0.2542
 2940TIP3   OH230378   0.023   0.494   7.481 -0.4722 -0.1825 -0.3812
 2940TIP3    H130379  -0.044   0.435   7.516 -0.0316  0.0096  0.8545
 2940TIP3    H230380   0.093   0.435   7.450 -0.3623 -0.3381  0.1483
 2941TIP3   OH230381   3.948   4.540   1.789  0.0820 -0.3897  0.3045
 2941TIP3    H130382   3.898   4.459   1.789  0.6994 -0.7866  1.4360
 2941TIP3    H230383   4.034   4.515   1.757  0.7451 -0.5204  2.0674
 2942TIP3   OH230384   5.561   4.794   2.476 -0.2966  0.0149 -0.4432
 2942TIP3    H130385   5.593   4.798   2.386  0.5525 -0.5608 -0.1822
 2942TIP3    H230386   5.500   4.720   2.477 -1.4885  0.9632 -0.8849
 2943TIP3   OH230387   5.490   4.553   1.600  0.2434  0.5488 -0.1843
 2943TIP3    H130388   5.522   4.622   1.659  0.2306 -0.4901  1.0750
 2943TIP3    H230389   5.460   4.600   1.523 -1.9074  2.2158  1.5389
 2944TIP3   OH230390   6.004   4.371   2.169 -0.0458 -0.4133 -0.2701
 2944TIP3    H130391   5.952   4.301   2.210 -1.5802  0.3650 -0.8291
 2944TIP3    H230392   6.071   4.324   2.120  0.6547 -1.4216  1.5231
 2945TIP3   OH230393   5.241   2.175   8.140 -0.0921 -0.0826 -1.2081
 2945TIP3    H130394   5.146   2.167   8.135 -0.2508 -1.3324  1.9711
 2945TIP3    H230395   5.274   2.111   8.076 -1.2951  1.0072 -3.0194
 2946TIP3   OH230396   0.523   0.222   8.073  0.4642 -0.5672 -0.3998
 2946TIP3    H130397   0.608   0.201   8.111  0.5354 -1.1627 -0.8669
 2946TIP3    H230398   0.543   0.279   7.999  0.3141  0.7183  0.5206
 2947TIP3   OH230399   5.997   4.601   8.757  0.5049 -0.2440 -0.1977
 2947TIP3    H130400   5.948   4.679   8.784  0.2877 -0.1563 -0.8385
 2947TIP3    H230401   6.060   4.634   8.692  1.5206 -0.3276  0.7035
 2948TIP3   OH230402   5.422   2.449   0.144 -0.2261 -0.2396  0.6580
 2948TIP3    H130403   5.339   2.496   0.135  0.4995  0.6433 -2.5829
 2948TIP3    H230404   5.396   2.357   0.154 -1.6068  0.0047 -0.3903
 2949TIP3   OH230405   2.786   6.531   2.510 -0.0064  0.2505 -0.4144
 2949TIP3    H130406   2.799   6.469   2.583 -1.1576 -0.5038 -0.8337
 2949TIP3    H230407   2.851   6.505   2.445  1.2888  1.1664  0.4628
 2950TIP3   OH230408   6.753   6.383   0.222 -0.2885 -0.8218 -0.4651
 2950TIP3    H130409   6.681   6.361   0.281  0.0874  1.2741  0.8665
 2950TIP3    H230410   6.716   6.369   0.134 -1.3908 -2.4462  0.2158
 2951TIP3   OH230411   0.756   4.600   0.121 -0.0153  0.6252 -0.0568
 2951TIP3    H130412   0.708   4.518   0.114 -2.1180  1.7615  0.1725
 2951TIP3    H230413   0.766   4.630   0.030  1.5420 -0.2751 -0.2072
 2952TIP3   OH230414   1.346   4.495   1.020  0.2703  0.3285  0.1187
 2952TIP3    H130415   1.403   4.477   0.944  0.8693  0.6961  0.4675
 2952TIP3    H230416   1.382   4.576   1.057  0.1009  0.0460  0.9074
 2953TIP3   OH230417   5.342   3.761   1.023  0.4021 -0.2548  0.3405
 2953TIP3    H130418   5.372   3.676   0.991  1.0764 -1.1883  3.2340
 2953TIP3    H230419   5.373   3.823   0.956 -0.9337 -2.2556 -2.3364
 2954TIP3   OH230420   4.768   2.939   1.987 -0.0125  0.7180  0.2425
 2954TIP3    H130421   4.752   2.845   1.996 -0.2595  0.6042 -1.1347
 2954TIP3    H230422   4.766   2.972   2.076 -1.1155 -0.4021  0.6685
 2955TIP3   OH230423   3.492   2.754   1.886  0.2502  0.0646 -0.1339
 2955TIP3    H130424   3.437   2.832   1.883 -0.9426 -0.7673 -1.2228
 2955TIP3    H230425   3.483   2.720   1.975 -0.1665  0.5207 -0.0012
 2956TIP3   OH230426   5.921   0.875   0.979  0.6527 -0.1643  0.7793
 2956TIP3    H130427   5.889   0.858   1.068  0.4110 -0.7521  0.5828
 2956TIP3    H230428   5.960   0.792   0.951 -0.7656 -0.4941 -0.2942
 2957TIP3   OH230429   3.508   4.186   2.439 -0.0508 -0.0656  0.2793
 2957TIP3    H130430   3.571   4.114   2.449 -2.0388 -1.8515  0.7055
 2957TIP3    H230431   3.542   4.256   2.494  2.9099  0.0901 -1.5320
 2958TIP3   OH230432   0.616   1.682   1.199 -0.3189 -0.2975  0.1060
 2958TIP3    H130433   0.607   1.693   1.293  2.1569 -1.4192  0.5688
 2958TIP3    H230434   0.645   1.592   1.188  0.6326  0.1610 -1.5975
 2959TIP3   OH230435   2.755   3.436   2.663  0.1097  0.1813  0.2252
 2959TIP3    H130436   2.706   3.512   2.693 -3.3977 -1.2411 -1.3868
 2959TIP3    H230437   2.805   3.469   2.588  0.0334  1.2361  0.6097
 2960TIP3   OH230438   6.446   6.517   2.928 -0.2972  0.0764  0.1793
 2960TIP3    H130439   6.370   6.495   2.874 -0.0856  0.0132 -0.0970
 2960TIP3    H230440   6.436   6.611   2.945  0.1106  0.3020 -0.7467
 2961TIP3   OH230441   3.444   2.576   3.029  0.9018  0.2720 -0.1581
 2961TIP3    H130442   3.438   2.626   3.111 -0.1295 -0.3278  0.1515
 2961TIP3    H230443   3.357   2.538   3.017  1.7545 -1.9116 -0.0728
 2962TIP3   OH230444   0.179   0.403   1.602  0.1393  0.1158  0.3755
 2962TIP3    H130445   0.197   0.424   1.694 -1.1013 -0.9968  0.9058
 2962TIP3    H230446   0.232   0.326   1.584  0.4829  0.4128  0.1172
 2963TIP3   OH230447   1.858   3.572   0.590  0.2024  0.4930  0.5634
 2963TIP3    H130448   1.762   3.567   0.588  0.2250  0.2133 -0.0820
 2963TIP3    H230449   1.877   3.655   0.634 -0.3483  1.1700 -0.4539
 2964TIP3   OH230450   5.077   1.608   1.426 -0.0746 -0.3783  0.4144
 2964TIP3    H130451   5.125   1.691   1.431  0.7326 -0.9004  1.9403
 2964TIP3    H230452   5.144   1.541   1.439 -0.9306 -1.2044  0.6676
 2965TIP3   OH230453   0.347   1.080   8.609 -0.3656  0.2533  0.3313
 2965TIP3    H130454   0.324   0.996   8.650 -0.0250 -0.3471 -0.6656
 2965TIP3    H230455   0.368   1.137   8.683 -1.9075 -0.1166  1.1086
 2966TIP3   OH230456   3.240   3.678   2.465  0.2185  0.3944  0.7250
 2966TIP3    H130457   3.153   3.659   2.500  0.6326 -1.5031  0.8291
 2966TIP3    H230458   3.289   3.712   2.540  0.2095 -0.7195  1.2526
 2967TIP3   OH230459   5.704   3.428   7.926  0.8433 -0.4578 -0.4101
 2967TIP3    H130460   5.763   3.486   7.973  1.5285 -1.7050  0.3470
 2967TIP3    H230461   5.702   3.462   7.837  0.1909  1.4538  0.3002
 2968TIP3   OH230462   1.985   5.250   2.319  0.3367 -0.2560  0.5222
 2968TIP3    H130463   1.899   5.209   2.308 -0.0253  0.6392 -0.0720
 2968TIP3    H230464   1.966   5.344   2.329  1.1319 -0.2176  2.0403
 2969TIP3   OH230465   3.471   4.993   1.382 -0.7570 -0.6461 -0.1546
 2969TIP3    H130466   3.479   4.918   1.441  1.4762 -0.8676 -0.6532
 2969TIP3    H230467   3.559   5.031   1.379 -1.7101  1.6700 -0.3677
 2970TIP3   OH230468   4.693   0.119   0.426 -0.1870  0.2615 -0.2849
 2970TIP3    H130469   4.600   0.097   0.433 -0.1611  0.7141  3.5377
 2970TIP3    H230470   4.693   0.213   0.407 -0.4639  0.0459 -1.4155
 2971TIP3   OH230471   6.328   6.287   8.493  0.2133  0.0609 -0.2842
 2971TIP3    H130472   6.233   6.272   8.488  0.1855  0.1055  0.0574
 2971TIP3    H230473   6.364   6.238   8.419 -0.0639 -0.0681 -0.3364
 2972TIP3   OH230474   4.156   2.217   8.041  0.0516  0.1581  0.0922
 2972TIP3    H130475   4.143   2.124   8.022 -0.9561  0.1290  0.8428
 2972TIP3    H230476   4.186   2.220   8.131 -0.6596  0.5853  0.3316
 2973TIP3   OH230477   2.907   0.819   0.742 -0.1322 -0.5368  0.0469
 2973TIP3    H130478   2.823   0.853   0.772  0.7078  1.9336 -0.1549
 2973TIP3    H230479   2.888   0.731   0.712 -2.6773  0.0111 -0.1669
 2974TIP3   OH230480   5.795   1.524   2.156 -0.8464 -0.3697 -0.2144
 2974TIP3    H130481   5.800   1.540   2.251  2.3950  2.1007 -0.6261
 2974TIP3    H230482   5.851   1.449   2.141  0.6853  0.7404 -0.3291
 2975TIP3   OH230483   1.344   0.381   0.903  0.3494 -0.0381  0.4591
 2975TIP3    H130484   1.274   0.444   0.886  0.7828  0.2134 -0.4924
 2975TIP3    H230485   1.323   0.306   0.849 -1.1003 -1.5185  2.8728
 2976TIP3   OH230486   3.883   5.110   1.673 -0.5417 -0.2855 -0.4486
 2976TIP3    H130487   3.889   5.067   1.758  0.8320  0.0209 -0.3576
 2976TIP3    H230488   3.926   5.195   1.685  1.2364 -0.9107 -1.8175
 2977TIP3   OH230489   3.110   1.004   0.803  0.2040  0.3669 -0.3271
 2977TIP3    H130490   3.086   1.077   0.747 -1.1742 -1.2492 -1.9631
 2977TIP3    H230491   3.035   0.945   0.799  1.8628 -1.8871 -0.3566
 2978TIP3   OH230492   0.782   2.866   1.555  0.1648 -0.4126  0.0886
 2978TIP3    H130493   0.859   2.811   1.562  0.9681  0.4020 -1.6525
 2978TIP3    H230494   0.715   2.821   1.606  1.5646 -1.5321  0.9974
 2979TIP3   OH230495   2.083   2.531   0.098 -0.2113 -0.2476 -0.3389
 2979TIP3    H130496   2.068   2.443   0.062 -0.0173 -0.8444  0.9987
 2979TIP3    H230497   2.120   2.580   0.024 -1.1727 -1.0135 -1.3754
 2980TIP3   OH230498   4.644   0.485   1.584 -0.1797  0.1576  0.1820
 2980TIP3    H130499   4.668   0.569   1.545 -1.2155  0.1383 -0.5365
 2980TIP3    H230500   4.559   0.465   1.546 -0.0938 -1.0608  0.6102
 2981TIP3   OH230501   4.833   1.878   0.580  0.4404 -0.4026 -0.0037
 2981TIP3    H130502   4.786   1.830   0.512 -0.2779 -1.2809  1.0839
 2981TIP3    H230503   4.766   1.929   0.625  0.6928 -0.7987  0.8457
 2982TIP3   OH230504   1.570   6.663   8.036 -0.1124  0.4330 -0.3031
 2982TIP3    H130505   1.590   6.756   8.043  0.3059  0.3333 -0.0692
 2982TIP3    H230506   1.535   6.651   7.948  0.7926  0.6447 -0.7020
 2983TIP3   OH230507   0.153   3.109   1.603 -0.0771  0.0512 -0.3972
 2983TIP3    H130508   0.085   3.043   1.587 -0.8832  0.5271  0.8882
 2983TIP3    H230509   0.229   3.059   1.633 -0.5404 -0.3389  0.1418
 2984TIP3   OH230510   3.768   2.468   7.548 -0.9233 -0.0691 -0.0321
 2984TIP3    H130511   3.743   2.474   7.640  0.7793 -0.6274  0.5183
 2984TIP3    H230512   3.797   2.378   7.537 -0.4524  0.1769 -0.9281
 2985TIP3   OH230513   3.943   0.308   2.190  0.0919  0.5953  0.4668
 2985TIP3    H130514   3.869   0.302   2.251  0.1181 -0.1680  0.4337
 2985TIP3    H230515   3.970   0.217   2.176 -0.1933  0.7042 -1.0200
 2986TIP3   OH230516   2.057   0.803   2.290 -0.0071 -0.0806  0.1874
 2986TIP3    H130517   2.087   0.894   2.299 -0.0917  0.0375 -0.6032
 2986TIP3    H230518   2.035   0.795   2.197 -0.4182 -0.7857  0.3400
 2987TIP3   OH230519   4.349   2.846   3.017  0.3245  0.1516  0.8024
 2987TIP3    H130520   4.442   2.865   3.007  0.1129  0.8341 -0.0744
 2987TIP3    H230521   4.309   2.932   3.032 -0.3844  0.1720 -0.9232
 2988TIP3   OH230522   6.108   0.791   0.723 -0.7441 -0.3497 -0.0644
 2988TIP3    H130523   6.109   0.709   0.675  0.8995 -1.8154  2.2959
 2988TIP3    H230524   6.193   0.795   0.767 -1.8770  1.2038  2.1769
 2989TIP3   OH230525   2.129   2.876   1.639  0.5573 -0.0407  0.2009
 2989TIP3    H130526   2.146   2.831   1.721 -1.4576  2.0509  1.9172
 2989TIP3    H230527   2.056   2.827   1.600  0.6016 -0.2245  0.3465
 2990TIP3   OH230528   6.294   2.518   8.333 -0.7656 -0.4262  0.6422
 2990TIP3    H130529   6.271   2.438   8.285 -1.8777  0.9646 -1.3131
 2990TIP3    H230530   6.211   2.553   8.364 -0.3387  0.1461  1.1702
 2991TIP3   OH230531   0.342   5.723   3.110 -0.1261  0.0279 -0.2951
 2991TIP3    H130532   0.320   5.783   3.181  0.9297  0.1764 -0.0775
 2991TIP3    H230533   0.372   5.779   3.039 -1.4234 -0.1037 -0.9716
 2992TIP3   OH230534   0.365   2.972   1.746 -1.1646 -0.3363 -0.0419
 2992TIP3    H130535   0.324   2.888   1.766 -0.9160 -0.6096 -0.6814
 2992TIP3    H230536   0.430   2.984   1.815 -0.0429 -1.4604 -0.8513
 2993TIP3   OH230537   2.185   3.546   0.833  1.0241 -0.1802  0.2342
 2993TIP3    H130538   2.113   3.525   0.892 -0.5869  0.3195 -1.4255
 2993TIP3    H230539   2.160   3.506   0.749  2.9350 -0.3933 -0.2873
 2994TIP3   OH230540   6.540   3.231   1.360 -0.0340  0.0174 -0.1816
 2994TIP3    H130541   6.496   3.204   1.280 -1.6447 -2.9537  1.5447
 2994TIP3    H230542   6.633   3.226   1.339 -0.4169 -0.5103 -1.9018
 2995TIP3   OH230543   3.849   4.299   1.865 -0.1625 -0.4935 -0.4528
 2995TIP3    H130544   3.756   4.278   1.878 -0.0944 -0.9893 -0.7801
 2995TIP3    H230545   3.895   4.216   1.875  0.2896 -0.1964  0.0492
 2996TIP3   OH230546   0.896   2.976   8.790  0.1441  0.1977  0.4083
 2996TIP3    H130547   0.864   2.896   8.830 -2.4678  1.0997  0.3106
 2996TIP3    H230548   0.964   2.947   8.729  0.9935 -1.6387  2.1355
 2997TIP3   OH230549   6.270   1.399   7.863 -0.4236  0.0234  0.5863
 2997TIP3    H130550   6.257   1.326   7.803 -2.3575  0.3395  0.5432
 2997TIP3    H230551   6.273   1.476   7.807  0.5791  0.0821  0.7082
 2998TIP3   OH230552   1.461   0.489   1.198  0.0059  0.5225  0.2725
 2998TIP3    H130553   1.441   0.468   1.107 -0.9902  1.0875  0.3488
 2998TIP3    H230554   1.552   0.462   1.210 -0.1436 -0.4149 -0.6272
 2999TIP3   OH230555   6.110   5.417   8.714  0.1305 -0.0513 -0.9187
 2999TIP3    H130556   6.021   5.387   8.734  0.7219 -1.2472  0.0194
 2999TIP3    H230557   6.109   5.510   8.736 -0.0876 -0.6537  2.1537
 3000TIP3   OH230558   5.401   3.461   8.020 -0.0818  0.5265 -0.3894
 3000TIP3    H130559   5.461   3.410   8.074 -1.2020 -1.1917 -0.6773
 3000TIP3    H230560   5.359   3.522   8.080 -3.5334 -3.3157  1.5345
 3001TIP3   OH230561   5.270   1.386   0.914 -0.4083 -0.4709 -0.1683
 3001TIP3    H130562   5.199   1.427   0.964  0.4817 -1.3558  1.9489
 3001TIP3    H230563   5.262   1.422   0.826 -2.5332  0.5986  0.4096
 3002TIP3   OH230564   6.371   2.162   7.958  0.0327  0.0333 -0.2504
 3002TIP3    H130565   6.389   2.080   8.004 -2.1856  0.4191  1.5019
 3002TIP3    H230566   6.356   2.136   7.867  0.4576 -1.3587  0.0545
 3003TIP3   OH230567   3.757   3.165   0.480 -0.3823  0.3071 -0.1044
 3003TIP3    H130568   3.812   3.203   0.548  0.6857  0.7485 -1.1841
 3003TIP3    H230569   3.671   3.155   0.521 -0.3165  2.5413  0.6627
 3004TIP3   OH230570   5.085   4.626   2.495  0.3990 -0.4943 -0.1131
 3004TIP3    H130571   4.999   4.643   2.532  0.3797  2.2889 -1.2109
 3004TIP3    H230572   5.147   4.661   2.559  0.5031  0.8940 -0.9176
 3005TIP3   OH230573   4.355   0.098   1.424 -0.1868 -0.1115  0.3745
 3005TIP3    H130574   4.268   0.091   1.463 -0.1093 -0.8190  0.4357
 3005TIP3    H230575   4.367   0.016   1.377  0.8171 -0.4357  1.1463
 3006TIP3   OH230576   1.632   2.521   7.387 -0.0566 -0.1268  0.4043
 3006TIP3    H130577   1.619   2.555   7.299 -1.4472 -1.4027  0.0757
 3006TIP3    H230578   1.676   2.437   7.375 -1.9769 -1.2426  0.7325
 3007TIP3   OH230579   6.287   5.366   1.247 -0.2413 -0.2388  0.2740
 3007TIP3    H130580   6.195   5.364   1.273  0.0429 -0.3572  1.3186
 3007TIP3    H230581   6.309   5.459   1.244 -1.1836  0.0167 -3.0510
 3008TIP3   OH230582   5.602   3.931   0.684  0.2913  0.0470 -0.0375
 3008TIP3    H130583   5.669   3.878   0.727  0.0089  0.4881  0.9881
 3008TIP3    H230584   5.521   3.880   0.694  0.3832 -0.2696 -0.8621
 3009TIP3   OH230585   4.933   4.263   8.639 -0.5750 -0.2609  0.3674
 3009TIP3    H130586   4.860   4.207   8.614  0.8369 -1.6293 -0.9774
 3009TIP3    H230587   4.908   4.351   8.610 -2.8877 -0.0891  2.6125
 3010TIP3   OH230588   5.661   0.947   1.593 -0.1351 -0.0869 -0.9134
 3010TIP3    H130589   5.589   0.989   1.545  0.7444  2.6005 -0.0568
 3010TIP3    H230590   5.662   0.991   1.678  2.4765 -0.0517 -0.8934
 3011TIP3   OH230591   3.821   3.142   0.915  0.5475 -0.0717 -0.3630
 3011TIP3    H130592   3.849   3.187   0.836  0.0428  2.0191  0.5791
 3011TIP3    H230593   3.897   3.148   0.974  0.1944  0.3371  0.0654
 3012TIP3   OH230594   6.680   6.424   8.886  0.4866  0.4967 -0.1937
 3012TIP3    H130595   6.594   6.384   8.869  0.0976  0.6307  1.2903
 3012TIP3    H230596   6.674   6.511   8.846  0.3227  0.1296 -0.9950
 3013TIP3   OH230597   3.987   1.015   8.711  0.3123 -0.5382  0.3087
 3013TIP3    H130598   4.073   1.036   8.748 -0.3368  2.7204  0.1856
 3013TIP3    H230599   3.924   1.040   8.778 -0.7037  1.8367 -1.4034
 3014TIP3   OH230600   4.603   0.119   3.260 -0.3303  0.1842  0.0282
 3014TIP3    H130601   4.511   0.113   3.283 -0.4982  0.3896 -0.5777
 3014TIP3    H230602   4.615   0.210   3.234 -0.5495 -0.4096 -2.3339
 3015TIP3   OH230603   4.430   1.572   1.911  0.9078 -0.0907  0.0979
 3015TIP3    H130604   4.373   1.516   1.965  0.0945  0.9361  0.3343
 3015TIP3    H230605   4.517   1.535   1.923  0.4622 -1.0222  0.6257
 3016TIP3   OH230606   1.121   4.984   1.933 -0.0845 -0.3451  0.2011
 3016TIP3    H130607   1.132   4.955   2.024  1.6674  0.1315  0.1721
 3016TIP3    H230608   1.162   5.070   1.930 -1.1306  0.1414 -0.7976
 3017TIP3   OH230609   4.737   4.078   2.845 -1.1393  0.8036 -0.2205
 3017TIP3    H130610   4.730   3.987   2.871 -1.6403  0.4884 -1.3726
 3017TIP3    H230611   4.813   4.111   2.891 -0.1627 -0.5697 -0.7997
 3018TIP3   OH230612   0.993   3.331   0.385 -0.3931  0.3646 -0.2739
 3018TIP3    H130613   0.961   3.241   0.376 -0.8595  0.5114 -0.1105
 3018TIP3    H230614   0.925   3.384   0.343  0.2321  0.5869 -1.0286
 3019TIP3   OH230615   0.131   3.285   8.233  0.6357  0.6166 -0.0621
 3019TIP3    H130616   0.170   3.247   8.312 -1.5416 -2.0452 -0.1415
 3019TIP3    H230617   0.206   3.316   8.182  2.2911 -0.1394  1.7882
 3020TIP3   OH230618   4.950   2.449   2.206 -0.6102 -0.1561  0.1101
 3020TIP3    H130619   4.856   2.447   2.187 -0.7018 -0.7693  0.5987
 3020TIP3    H230620   4.954   2.484   2.295 -0.2953  1.0300 -0.3523
 3021TIP3   OH230621   0.868   0.537   2.010  0.0726 -0.1305  0.3440
 3021TIP3    H130622   0.886   0.453   2.052 -0.1740 -0.0613  0.5925
 3021TIP3    H230623   0.798   0.576   2.063 -0.7701 -0.3708 -0.5478
 3022TIP3   OH230624   5.287   6.519   1.617 -0.5924 -0.0548  0.1168
 3022TIP3    H130625   5.331   6.441   1.582  0.8140 -0.2418  2.0985
 3022TIP3    H230626   5.351   6.589   1.607 -0.5803  0.1089  1.2434
 3023TIP3   OH230627   0.170   6.344   8.850  0.0243 -0.1138 -0.0881
 3023TIP3    H130628   0.190   6.329   8.942 -0.0940  1.1745  0.1674
 3023TIP3    H230629   0.091   6.398   8.851  0.2408  0.2449 -0.9243
 3024TIP3   OH230630   0.349   0.622   8.179  0.0970  0.2742 -0.3477
 3024TIP3    H130631   0.370   0.562   8.250  0.4080  1.3363  0.4829
 3024TIP3    H230632   0.426   0.620   8.123  0.8605  1.2175  0.6263
 3025TIP3   OH230633   1.464   3.221   2.550 -0.2158  0.3156  0.4673
 3025TIP3    H130634   1.486   3.257   2.464  0.9394 -1.0935  0.1385
 3025TIP3    H230635   1.416   3.291   2.593  1.6050  2.1137 -0.2657
 3026TIP3   OH230636   1.206   6.540   1.639  0.3121  0.3846  0.0172
 3026TIP3    H130637   1.152   6.618   1.634 -0.1930 -0.0320 -2.0700
 3026TIP3    H230638   1.293   6.572   1.661 -0.2929  1.3059  1.1146
 3027TIP3   OH230639   5.368   5.460   8.895  0.2091 -0.0895  0.0371
 3027TIP3    H130640   5.355   5.365   8.898 -1.7922  0.1387 -0.4148
 3027TIP3    H230641   5.280   5.497   8.896  0.9520  1.8397  1.6990
 3028TIP3   OH230642   0.298   2.195   1.688 -0.4027 -0.1405  0.6757
 3028TIP3    H130643   0.312   2.256   1.760  1.9777  1.5233 -1.0149
 3028TIP3    H230644   0.220   2.228   1.643 -0.3125  0.4543  0.9431
 3029TIP3   OH230645   5.087   4.847   2.325 -0.1127 -0.2890 -0.0778
 3029TIP3    H130646   5.087   4.751   2.331 -0.9107 -0.3204 -0.4370
 3029TIP3    H230647   5.104   4.876   2.414  0.5682 -0.7643 -0.0415
 3030TIP3   OH230648   0.882   0.879   3.235 -0.1285  0.0665  0.1257
 3030TIP3    H130649   0.905   0.945   3.169 -0.2086  1.3721  1.3383
 3030TIP3    H230650   0.959   0.823   3.242  0.5630  0.9919  0.1662
 3031TIP3   OH230651   5.436   0.512   0.646 -0.2113 -0.5272 -0.0935
 3031TIP3    H130652   5.477   0.585   0.693 -0.2097  0.0460 -0.9521
 3031TIP3    H230653   5.477   0.514   0.559 -0.3972 -1.3985 -0.2095
 3032TIP3   OH230654   2.226   5.585   3.145 -0.2213 -0.0278  0.6923
 3032TIP3    H130655   2.216   5.509   3.203  1.2556 -0.1919  0.7686
 3032TIP3    H230656   2.211   5.550   3.057 -2.1483  0.1573  0.8980
 3033TIP3   OH230657   4.938   4.676   0.275 -0.3571 -0.4218  0.1284
 3033TIP3    H130658   4.942   4.716   0.188 -1.6490  0.1107  0.2884
 3033TIP3    H230659   5.012   4.616   0.278  0.9592  1.0983 -0.5608
 3034TIP3   OH230660   1.912   4.013   8.332 -0.1035 -0.0828  0.4060
 3034TIP3    H130661   1.924   3.983   8.242 -1.7396  0.2352  0.0655
 3034TIP3    H230662   1.894   3.933   8.382  3.2766 -0.6307  0.9984
 3035TIP3   OH230663   0.958   1.541   2.778  0.0511  0.6480  0.1419
 3035TIP3    H130664   0.914   1.542   2.863  1.7536 -1.7912  1.1631
 3035TIP3    H230665   1.001   1.627   2.772 -0.1264  0.8749  1.7475
 3036TIP3   OH230666   3.850   1.807   0.221 -0.0052  0.3072  0.2953
 3036TIP3    H130667   3.920   1.792   0.285  1.3600  0.7392 -1.0380
 3036TIP3    H230668   3.896   1.834   0.142 -1.7192  0.8035 -0.5678
 3037TIP3   OH230669   5.865   3.738   8.636  0.0948 -0.1569 -0.0139
 3037TIP3    H130670   5.776   3.711   8.659  0.4366 -0.3431  1.1516
 3037TIP3    H230671   5.895   3.788   8.711  1.4071 -1.1152  0.1376
 3038TIP3   OH230672   0.195   5.728   2.166  0.4012 -0.1279 -0.1577
 3038TIP3    H130673   0.185   5.650   2.112 -0.1793 -0.7465  0.8140
 3038TIP3    H230674   0.146   5.796   2.120  1.3089 -0.1917 -1.2555
 3039TIP3   OH230675   4.353   5.478   1.125 -0.1074 -0.1253 -0.1771
 3039TIP3    H130676   4.262   5.452   1.113 -0.6063  0.7877  1.4099
 3039TIP3    H230677   4.394   5.403   1.167  0.0621 -0.7973 -1.4973
 3040TIP3   OH230678   2.761   0.085   0.496 -0.5336 -0.3466  1.2401
 3040TIP3    H130679   2.728   0.094   0.586  0.1296  1.5459  1.3491
 3040TIP3    H230680   2.694   0.125   0.442 -1.3109 -2.2153  0.7706
 3041TIP3   OH230681   3.438   3.844   8.012  0.3091  0.0100 -0.0866
 3041TIP3    H130682   3.392   3.844   7.928 -1.8930 -1.0111  1.0301
 3041TIP3    H230683   3.509   3.908   8.001 -0.5525  0.6756 -2.3463
 3042TIP3   OH230684   6.017   5.158   2.636 -0.1505  0.1656  0.0895
 3042TIP3    H130685   6.076   5.173   2.710 -0.7567 -0.8659  0.8052
 3042TIP3    H230686   5.930   5.151   2.676 -0.2181 -2.8444 -0.3809
 3043TIP3   OH230687   6.565   4.057   7.857 -0.6565  0.4278  0.1195
 3043TIP3    H130688   6.524   3.980   7.896 -0.1063  0.6860  1.2435
 3043TIP3    H230689   6.495   4.123   7.858 -1.4068 -0.2800 -1.6709
 3044TIP3   OH230690   5.820   0.820   7.798 -0.0004  0.4205 -0.0027
 3044TIP3    H130691   5.746   0.826   7.738 -0.8040  1.2644  1.0480
 3044TIP3    H230692   5.889   0.779   7.746 -1.4193 -1.1070 -0.7941
 3045TIP3   OH230693   0.268   0.570   8.658  0.7189  0.0250  1.0003
 3045TIP3    H130694   0.312   0.526   8.585  0.9825 -0.5633  1.5075
 3045TIP3    H230695   0.223   0.644   8.617  0.4345 -0.5940  0.1572
 3046TIP3   OH230696   1.212   6.427   7.973 -0.0941 -0.6287  0.0233
 3046TIP3    H130697   1.173   6.464   7.894 -0.2196 -1.3781 -0.2727
 3046TIP3    H230698   1.146   6.443   8.041 -0.8370 -1.6524 -0.4190
 3047TIP3   OH230699   0.029   3.789   0.667 -0.2702 -0.1411 -0.3375
 3047TIP3    H130700  -0.043   3.830   0.716  0.8385 -0.4558  1.6649
 3047TIP3    H230701   0.002   3.697   0.659 -1.0196  0.1638 -1.4482
 3048TIP3   OH230702   6.168   5.076   7.427  0.3751  0.3453 -0.3196
 3048TIP3    H130703   6.113   5.028   7.365  1.0945 -1.4313  0.3522
 3048TIP3    H230704   6.253   5.034   7.421  0.5148  0.2227  1.7344
 3049TIP3   OH230705   5.751   5.261   8.245 -0.4499 -1.0949 -0.3517
 3049TIP3    H130706   5.734   5.334   8.306 -1.6752 -0.6996 -1.1317
 3049TIP3    H230707   5.841   5.235   8.265 -0.1193  0.3542  0.2476
 3050TIP3   OH230708   4.377   1.747   7.734 -0.8461  0.3874 -1.3154
 3050TIP3    H130709   4.440   1.793   7.789 -0.7189 -0.9462 -0.2854
 3050TIP3    H230710   4.426   1.722   7.656 -0.1402 -0.4455 -0.6217
 3051TIP3   OH230711   3.437   6.023   8.063 -0.3927  0.7185 -0.6131
 3051TIP3    H130712   3.417   6.028   7.970 -0.9589  0.8609 -0.4881
 3051TIP3    H230713   3.530   6.047   8.070 -0.6546  1.8815 -1.0074
 3052TIP3   OH230714   5.775   1.479   8.663  0.7242  0.2051 -0.0621
 3052TIP3    H130715   5.740   1.394   8.687 -0.3982  0.2892 -1.2798
 3052TIP3    H230716   5.870   1.465   8.655  0.4586 -1.1954 -1.2384
 3053TIP3   OH230717   1.151   3.707   2.020  0.0790  0.1414 -0.2521
 3053TIP3    H130718   1.130   3.781   1.964  1.3491  0.5006 -0.2889
 3053TIP3    H230719   1.091   3.638   1.992 -2.5568  1.7267  1.1602
 3054TIP3   OH230720   1.534   6.195   1.861  0.5681 -0.7756  0.6172
 3054TIP3    H130721   1.572   6.152   1.785  1.6602 -1.5720  1.5730
 3054TIP3    H230722   1.455   6.145   1.881  0.1160 -0.3852 -0.1453
 3055TIP3   OH230723   6.155   2.972   1.205  0.5504  0.0050  0.1109
 3055TIP3    H130724   6.064   2.965   1.235  0.4958 -1.7231 -0.3150
 3055TIP3    H230725   6.185   2.881   1.199  2.1434  0.5218 -0.2692
 3056TIP3   OH230726   4.593   2.016   0.552 -0.8726 -0.0985  0.5310
 3056TIP3    H130727   4.570   1.997   0.461  0.2084  2.1864 -0.2882
 3056TIP3    H230728   4.508   2.031   0.595 -1.4533 -2.0736  0.1828
 3057TIP3   OH230729   0.176   1.643   1.004 -0.0741  0.0509  0.1572
 3057TIP3    H130730   0.121   1.609   0.934 -0.9934 -0.5253  1.1372
 3057TIP3    H230731   0.125   1.629   1.084  1.1136  0.3377  0.9894
 3058TIP3   OH230732   1.161   0.083   7.720 -0.1817  0.2241  0.3072
 3058TIP3    H130733   1.086   0.023   7.728  0.5959 -0.6366  1.3456
 3058TIP3    H230734   1.170   0.095   7.625  1.0611 -3.2099 -0.1699
 3059TIP3   OH230735   4.477   2.506   2.677  0.6405 -0.1232 -0.0815
 3059TIP3    H130736   4.384   2.523   2.659  0.3629 -0.8290  0.6297
 3059TIP3    H230737   4.476   2.436   2.742  1.6831 -0.3320 -0.2793
 3060TIP3   OH230738   4.388   5.892   8.092 -0.2048 -0.0039 -0.9890
 3060TIP3    H130739   4.460   5.855   8.042  0.4076 -1.6769  0.9641
 3060TIP3    H230740   4.309   5.851   8.054  0.0109  0.5087 -2.0177
 3061TIP3   OH230741   4.036   0.204   1.456  0.2199 -0.4444 -0.0124
 3061TIP3    H130742   4.077   0.251   1.384 -0.5328  0.3380  0.0484
 3061TIP3    H230743   4.021   0.115   1.422  1.9648 -0.7747 -0.0117
 3062TIP3   OH230744   0.800   6.592   3.053 -0.7721 -0.1210  0.0567
 3062TIP3    H130745   0.739   6.645   3.105  0.2030 -0.6504  1.8413
 3062TIP3    H230746   0.870   6.652   3.028 -1.1784  0.1061 -0.5446
 3063TIP3   OH230747   5.137   2.594   8.162 -0.3891 -0.2729 -0.2369
 3063TIP3    H130748   5.107   2.680   8.131 -1.5614 -0.9631 -1.0790
 3063TIP3    H230749   5.199   2.565   8.094  1.4457  0.6666  0.9525
 3064TIP3   OH230750   4.940   4.720   1.413  0.0391 -0.6138 -0.0186
 3064TIP3    H130751   4.977   4.642   1.454 -0.6779 -0.8202  0.2533
 3064TIP3    H230752   5.015   4.765   1.374  0.3486 -1.8427 -0.8788
 3065TIP3   OH230753   0.465   0.659   1.395  0.1953 -0.5800  0.8246
 3065TIP3    H130754   0.421   0.717   1.332  0.0011  0.3688  1.8079
 3065TIP3    H230755   0.405   0.656   1.470  1.1168 -0.4786  1.5735
 3066TIP3   OH230756   2.910   5.539   0.825  0.2956  0.3444  0.1485
 3066TIP3    H130757   2.834   5.512   0.877  0.2008  1.2584  0.5067
 3066TIP3    H230758   2.874   5.563   0.740  0.1826  0.8062  0.3278
 3067TIP3   OH230759   5.005   5.682   1.916 -0.3421 -0.5254  0.0986
 3067TIP3    H130760   5.023   5.617   1.848  0.1598 -0.8271  0.5083
 3067TIP3    H230761   5.060   5.655   1.990 -0.2148  0.2996  0.3141
 3068TIP3   OH230762   1.005   4.007   0.602  0.1464  0.2920 -0.2703
 3068TIP3    H130763   1.001   3.994   0.697  1.5048 -0.1786 -0.2668
 3068TIP3    H230764   0.928   3.961   0.569  1.1185 -1.8912  0.3786
 3069TIP3   OH230765   5.136   3.470   0.798 -0.0663  0.1915  0.5617
 3069TIP3    H130766   5.128   3.520   0.717 -1.5755  0.9322  1.1270
 3069TIP3    H230767   5.112   3.381   0.774 -0.3305  0.3689  0.1508
 3070TIP3   OH230768   6.050   4.185   7.566  0.1959 -0.3275  0.2511
 3070TIP3    H130769   6.066   4.132   7.644 -2.3582  0.1745  1.2168
 3070TIP3    H230770   6.122   4.249   7.565 -0.0337  0.0553  2.5809
 3071TIP3   OH230771   0.795   0.566   0.622  0.7120  0.3410  0.5166
 3071TIP3    H130772   0.852   0.597   0.692  1.4653  1.1471 -0.4198
 3071TIP3    H230773   0.712   0.612   0.636  1.0495  0.9505  0.5512
 3072TIP3   OH230774   5.773   5.179   1.662 -0.1381  0.6575 -0.0608
 3072TIP3    H130775   5.690   5.191   1.709 -0.0001  1.4191  0.0135
 3072TIP3    H230776   5.821   5.114   1.714  0.0954  1.6346  1.0034
 3073TIP3   OH230777   0.076   5.784   0.382 -0.2795  0.0147 -0.7757
 3073TIP3    H130778   0.163   5.787   0.343  0.6286  0.5965  1.1462
 3073TIP3    H230779   0.090   5.748   0.470 -2.0901 -0.5811 -0.6867
 3074TIP3   OH230780   1.906   5.992   7.926  0.6904  0.6985  0.1139
 3074TIP3    H130781   1.931   5.903   7.949  0.5374  0.6262 -0.0003
 3074TIP3    H230782   1.910   5.994   7.830 -1.8494  0.0473 -0.0759
 3075TIP3   OH230783   2.291   5.968   1.576 -0.1494  0.3066  0.0341
 3075TIP3    H130784   2.228   5.898   1.596  0.1251 -0.0137 -0.2101
 3075TIP3    H230785   2.353   5.928   1.515  0.2247  0.6522  0.1802
 3076TIP3   OH230786   2.832   5.602   8.123 -0.0922 -0.2186 -0.0942
 3076TIP3    H130787   2.854   5.571   8.210  0.0213 -0.4008 -0.1870
 3076TIP3    H230788   2.738   5.586   8.115 -0.1748  0.1438  0.1329
 3077TIP3   OH230789   3.078   3.503   8.911 -0.0321 -0.6495  0.2989
 3077TIP3    H130790   3.001   3.456   8.942 -1.7905  1.9457  0.2381
 3077TIP3    H230791   3.061   3.518   8.818  1.8393 -2.2412 -0.3710
 3078TIP3   OH230792   5.690   1.752   1.322  0.0609  0.6413 -0.0028
 3078TIP3    H130793   5.745   1.824   1.291  0.1421  1.1071  1.1472
 3078TIP3    H230794   5.605   1.766   1.280  0.3382  0.8882 -0.4818
 3079TIP3   OH230795   2.908   4.061   8.090  0.1763 -0.5783 -0.0650
 3079TIP3    H130796   2.913   4.078   7.996 -1.2926  0.0660 -0.0434
 3079TIP3    H230797   2.814   4.055   8.109  0.3734  0.8284  1.6188
 3080TIP3   OH230798   1.733   3.846   8.513 -0.0860 -0.1951  0.0039
 3080TIP3    H130799   1.670   3.779   8.486  0.3949 -1.2926  1.4706
 3080TIP3    H230800   1.683   3.905   8.568 -0.1239 -0.3205  0.1037
 3081TIP3   OH230801   5.149   1.902   0.518  0.2639  0.6386 -0.4687
 3081TIP3    H130802   5.158   1.822   0.466  1.6541  1.3460 -1.3654
 3081TIP3    H230803   5.069   1.889   0.569  0.5868 -1.4325 -0.4061
 3082TIP3   OH230804   2.497   5.000   2.795  0.1693 -0.0343  0.0029
 3082TIP3    H130805   2.471   4.916   2.832  0.4940 -0.0730  0.1501
 3082TIP3    H230806   2.577   5.023   2.842 -0.9645  1.3066  1.4075
 3083TIP3   OH230807   2.128   3.255   1.333 -0.4553 -0.1117 -0.1571
 3083TIP3    H130808   2.095   3.289   1.416 -1.1399 -1.1581  0.0291
 3083TIP3    H230809   2.195   3.192   1.359  1.1377  1.3720 -0.5077
 3084TIP3   OH230810   6.312   2.950   8.243 -0.5471 -0.0102  0.1143
 3084TIP3    H130811   6.270   2.933   8.159 -0.8274  0.9124  0.0557
 3084TIP3    H230812   6.273   3.033   8.272 -0.3561 -0.2527  1.0853
 3085TIP3   OH230813   4.322   6.434   1.577 -0.1081  0.0470 -0.0176
 3085TIP3    H130814   4.312   6.376   1.653  1.6313 -0.5034 -0.1617
 3085TIP3    H230815   4.314   6.375   1.501  0.2991  0.2215 -0.1988
 3086TIP3   OH230816   3.414   3.094   3.415  0.3187 -0.0762  0.0207
 3086TIP3    H130817   3.422   3.169   3.474  1.0226 -1.3743  1.6493
 3086TIP3    H230818   3.327   3.058   3.434  0.8578 -0.9709  0.9124
 3087TIP3   OH230819   2.966   1.469   8.791  0.1332  0.6791 -0.0690
 3087TIP3    H130820   2.907   1.512   8.853 -2.7907 -1.6473 -0.9954
 3087TIP3    H230821   3.024   1.416   8.846 -1.3133 -0.0664  0.8194
 3088TIP3   OH230822   1.330   2.771   0.754  0.1867 -0.3349  0.0334
 3088TIP3    H130823   1.351   2.791   0.845  0.6968 -1.3758  0.1455
 3088TIP3    H230824   1.401   2.715   0.723  0.2013  0.2728 -1.1203
 3089TIP3   OH230825   4.698   4.753   2.252 -0.5817  0.5461  0.2067
 3089TIP3    H130826   4.663   4.725   2.168  3.7673  1.8268 -2.4197
 3089TIP3    H230827   4.702   4.849   2.245 -0.5920  0.7227  2.1110
 3090TIP3   OH230828   4.746   3.210   2.109 -0.0918  0.2734 -0.8096
 3090TIP3    H130829   4.820   3.268   2.125 -0.5327  0.7136 -0.3255
 3090TIP3    H230830   4.758   3.137   2.170  0.3278 -0.0297 -1.2436
 3091TIP3   OH230831   2.225   0.996   7.662  0.2960  0.8616 -0.3522
 3091TIP3    H130832   2.279   1.057   7.713 -0.2620  0.8028  0.3189
 3091TIP3    H230833   2.279   0.917   7.655  0.5008  0.9801 -0.1196
 3092TIP3   OH230834   2.722   6.197   1.269  0.1430 -0.3723  0.0712
 3092TIP3    H130835   2.675   6.270   1.308  0.5973 -0.8562  1.5955
 3092TIP3    H230836   2.663   6.122   1.278  0.5798 -0.6604  0.6145
 3093TIP3   OH230837   6.663   2.753   2.161  0.3442 -0.4933  0.1317
 3093TIP3    H130838   6.692   2.676   2.113 -0.7184 -1.1347  0.4909
 3093TIP3    H230839   6.736   2.772   2.221  0.8333 -0.8904 -0.3266
 3094TIP3   OH230840   6.732   0.318   1.476 -0.1535 -0.2182  0.1890
 3094TIP3    H130841   6.815   0.339   1.519 -0.0503  1.5975 -0.7975
 3094TIP3    H230842   6.669   0.313   1.547  0.6176 -0.6678  0.8619
 3095TIP3   OH230843   3.635   3.236   8.068 -0.2168  0.3003 -0.5090
 3095TIP3    H130844   3.580   3.158   8.076  1.0038 -0.4740  0.8350
 3095TIP3    H230845   3.717   3.211   8.111  1.2292  1.3853 -2.5195
 3096TIP3   OH230846   0.557   6.593   0.131 -0.7335 -0.7143 -0.3897
 3096TIP3    H130847   0.504   6.620   0.056  0.6142  1.6147 -0.6041
 3096TIP3    H230848   0.637   6.558   0.093 -0.3096 -0.1100 -0.0728
 3097TIP3   OH230849   1.655   6.369   7.478  0.0734 -0.2512 -0.8605
 3097TIP3    H130850   1.594   6.442   7.488  1.5403  1.0167 -0.7166
 3097TIP3    H230851   1.729   6.406   7.430  1.1462 -1.4843 -0.2341
 3098TIP3   OH230852   5.021   4.876   2.888  0.0547  0.1225  0.2521
 3098TIP3    H130853   4.964   4.871   2.965  1.2390  1.0492  1.2467
 3098TIP3    H230854   5.107   4.897   2.925  0.8004 -0.1414 -1.2865
 3099TIP3   OH230855   6.132   0.518   1.318 -0.1039  0.5099 -0.7029
 3099TIP3    H130856   6.043   0.535   1.289 -0.1146 -0.5276 -1.3228
 3099TIP3    H230857   6.136   0.423   1.331 -0.0059  0.8308  2.4480
 3100TIP3   OH230858   0.800   0.468   8.092  0.2864  0.2464 -0.5173
 3100TIP3    H130859   0.738   0.478   8.165 -0.7071 -1.5996 -1.0291
 3100TIP3    H230860   0.761   0.519   8.021 -1.3589 -1.7980 -1.1921
 3101TIP3   OH230861   3.098   5.166   1.446 -0.4174 -0.3535 -0.4094
 3101TIP3    H130862   3.093   5.155   1.541  0.7010 -2.8963 -0.5647
 3101TIP3    H230863   3.183   5.206   1.430 -0.5112 -0.1331 -0.3588
 3102TIP3   OH230864   6.701   5.437   8.191 -0.5671 -0.2896 -0.0160
 3102TIP3    H130865   6.612   5.461   8.165  0.1666  0.4278 -1.9937
 3102TIP3    H230866   6.743   5.521   8.211  0.2305 -0.4300 -1.0378
 3103TIP3   OH230867   3.113   3.781   8.391 -0.0826  0.5119 -0.4366
 3103TIP3    H130868   3.072   3.779   8.305 -1.1416  0.0453  0.0598
 3103TIP3    H230869   3.042   3.808   8.450 -0.8803 -3.9697  1.0388
 3104TIP3   OH230870   1.615   3.347   7.667 -0.3208 -0.0094 -0.2747
 3104TIP3    H130871   1.578   3.395   7.741 -0.6176  0.6051 -0.8168
 3104TIP3    H230872   1.621   3.412   7.597 -3.4618 -1.3594 -1.9788
 3105TIP3   OH230873   4.574   1.497   2.163  0.6513  0.5480 -0.5117
 3105TIP3    H130874   4.642   1.561   2.182  0.5147  0.3313  0.8541
 3105TIP3    H230875   4.510   1.508   2.233  0.8281 -1.3317  0.0197
 3106TIP3   OH230876   0.424   6.355   7.314  0.1158 -0.6087 -0.0685
 3106TIP3    H130877   0.417   6.293   7.241  2.1182 -0.4896 -0.4316
 3106TIP3    H230878   0.518   6.376   7.318 -0.4249  2.0915  0.3133
 3107TIP3   OH230879   3.689   6.484   7.815  0.0643  0.5012  0.1266
 3107TIP3    H130880   3.639   6.405   7.836 -0.8605  1.2374  0.7909
 3107TIP3    H230881   3.655   6.512   7.730  0.5402  0.0844 -0.2089
 3108TIP3   OH230882   1.929   1.709   1.350 -0.6436  0.4182 -0.0910
 3108TIP3    H130883   1.917   1.736   1.441 -0.3512  0.8451 -0.1773
 3108TIP3    H230884   1.979   1.628   1.355 -0.8695  0.2921  0.1396
 3109TIP3   OH230885   4.120   3.123   0.578 -0.5043  0.1660 -0.2161
 3109TIP3    H130886   4.138   3.210   0.542  1.3034  0.0201  0.2225
 3109TIP3    H230887   4.094   3.138   0.668 -1.0841  0.2921 -0.4001
 3110TIP3   OH230888   4.894   2.933   1.540  0.2964  0.4663  0.1296
 3110TIP3    H130889   4.954   3.005   1.521 -1.4923  1.8407 -0.5310
 3110TIP3    H230890   4.951   2.856   1.547  2.1044  1.6691 -0.5907
 3111TIP3   OH230891   0.273   5.310   3.267  0.6744  0.1841 -0.5988
 3111TIP3    H130892   0.302   5.394   3.229 -0.0571  0.4535 -0.5788
 3111TIP3    H230893   0.343   5.249   3.246 -0.7588 -0.3580 -4.7854
 3112TIP3   OH230894   0.772   2.118   1.887  0.4657  0.1996 -0.9541
 3112TIP3    H130895   0.854   2.158   1.915  0.0755  1.3215 -1.3686
 3112TIP3    H230896   0.721   2.108   1.967  0.2665  1.2675 -0.9348
 3113TIP3   OH230897   0.249   2.819   8.706 -0.3513  0.4570  0.2843
 3113TIP3    H130898   0.169   2.869   8.722 -1.5098 -0.6646 -1.5855
 3113TIP3    H230899   0.276   2.788   8.792 -2.0256  0.7537  0.9431
 3114TIP3   OH230900   1.186   3.230   1.526  0.0800 -0.0612 -0.1253
 3114TIP3    H130901   1.187   3.138   1.554 -1.4675  0.1426  0.6937
 3114TIP3    H230902   1.118   3.270   1.580 -0.3963  1.2054 -1.6231
 3115TIP3   OH230903   5.027   5.194   3.464  0.4800 -0.1357  0.1589
 3115TIP3    H130904   5.101   5.254   3.464  1.3192 -1.1109  1.4914
 3115TIP3    H230905   5.064   5.110   3.435 -0.5051 -0.2317 -0.9142
 3116TIP3   OH230906   0.180   0.404   0.543 -0.3069 -0.0642 -0.0551
 3116TIP3    H130907   0.138   0.323   0.516  0.4193 -0.7219  0.7449
 3116TIP3    H230908   0.259   0.377   0.589  1.3794  1.1547 -2.0580
 3117TIP3   OH230909   6.326   3.298   2.079  0.2807 -0.0657  0.2974
 3117TIP3    H130910   6.373   3.330   2.156  1.6043 -2.4717  0.5945
 3117TIP3    H230911   6.384   3.318   2.005 -1.0603  2.3855 -0.1708
 3118TIP3   OH230912   3.490   0.262   8.061  0.4902  0.6804 -0.1623
 3118TIP3    H130913   3.568   0.250   8.008 -0.7756 -1.0749 -1.7837
 3118TIP3    H230914   3.476   0.177   8.103 -0.8321  0.7746 -0.3611
 3119TIP3   OH230915   0.169   1.530   0.441 -0.2202 -0.1565  0.0314
 3119TIP3    H130916   0.086   1.558   0.401 -0.0459  0.2196 -0.0736
 3119TIP3    H230917   0.232   1.530   0.368 -0.3521 -1.4659 -0.1154
 3120TIP3   OH230918   4.944   6.504   0.965  0.1168  0.3490  0.7551
 3120TIP3    H130919   4.973   6.593   0.983 -0.1407  0.3197  1.3254
 3120TIP3    H230920   4.905   6.509   0.878  0.8821  0.6052  0.4178
 3121TIP3   OH230921   6.285   0.820   2.199 -0.3499  0.3959 -0.0612
 3121TIP3    H130922   6.325   0.752   2.145  2.9511  0.9259  1.4474
 3121TIP3    H230923   6.328   0.901   2.170 -1.8483  1.3589  0.3196
 3122TIP3   OH230924   5.236   1.436   0.117 -0.0300 -0.2866  0.2208
 3122TIP3    H130925   5.316   1.419   0.168  0.9341  2.1409 -0.3578
 3122TIP3    H230926   5.176   1.367   0.145  2.5572 -2.8936 -0.0974
 3123TIP3   OH230927   1.662   0.125   2.468  0.0560 -0.2970  0.5584
 3123TIP3    H130928   1.617   0.180   2.532  1.1751  0.9093  0.3403
 3123TIP3    H230929   1.617   0.040   2.475 -2.2366  0.8187  0.3394
 3124TIP3   OH230930   3.779   0.125   7.951  0.5169  0.0813  0.3809
 3124TIP3    H130931   3.838   0.084   8.014 -1.1439 -0.3124  1.7382
 3124TIP3    H230932   3.798   0.218   7.956  1.5979 -0.1118  0.1532
 3125TIP3   OH230933   5.421   5.522   7.878 -0.0426 -0.4989 -0.2858
 3125TIP3    H130934   5.511   5.536   7.907 -0.1920  0.3095 -0.1687
 3125TIP3    H230935   5.428   5.499   7.785  0.2546  0.2252 -0.4497
 3126TIP3   OH230936   0.663   2.448   2.416  0.0049  0.0257 -0.2745
 3126TIP3    H130937   0.634   2.377   2.473  0.1186  0.1204 -0.1002
 3126TIP3    H230938   0.705   2.511   2.474  1.8027 -0.7505 -0.6779
 3127TIP3   OH230939   5.111   2.978   1.754 -0.6205 -0.3467  0.1671
 3127TIP3    H130940   5.041   3.030   1.794 -1.9740  0.7082 -3.1582
 3127TIP3    H230941   5.168   3.043   1.712 -0.5402 -1.3592 -1.3726
 3128TIP3   OH230942   4.696   2.522   8.392  0.0809 -0.5653  0.1070
 3128TIP3    H130943   4.761   2.559   8.332 -0.1128 -0.8184 -0.2589
 3128TIP3    H230944   4.748   2.473   8.456  0.2582 -0.6911 -0.1319
 3129TIP3   OH230945   5.632   0.873   2.464  0.3170  0.1174 -0.0704
 3129TIP3    H130946   5.702   0.833   2.517  1.1341  1.1531 -0.3375
 3129TIP3    H230947   5.569   0.904   2.529  1.3628  1.4752  0.3402
 3130TIP3   OH230948   6.234   4.794   3.013 -0.2962  0.3920 -0.3521
 3130TIP3    H130949   6.187   4.856   2.957  1.1456  1.2714 -0.6530
 3130TIP3    H230950   6.264   4.847   3.087  0.4783 -0.0636 -0.3358
 3131TIP3   OH230951   6.571   0.916   1.422 -0.0903  0.4932 -0.9942
 3131TIP3    H130952   6.523   0.947   1.499  0.9052  0.2192 -0.2537
 3131TIP3    H230953   6.503   0.880   1.365 -0.6391 -1.3709  0.7439
 3132TIP3   OH230954   3.929   5.012   1.932  0.5581 -0.0479 -0.0392
 3132TIP3    H130955   3.915   5.077   2.000  1.2164 -0.5259  0.5735
 3132TIP3    H230956   3.872   4.939   1.955  0.1536  0.1254 -0.4746
 3133TIP3   OH230957   0.740   0.543   8.887 -0.2905  0.0218  0.4939
 3133TIP3    H130958   0.735   0.570   8.796 -3.0620 -0.1284  0.5199
 3133TIP3    H230959   0.699   0.614   8.936  3.2652  1.2616  2.0187
 3134TIP3   OH230960   1.441   5.623   0.918 -0.5394  0.4289  0.0138
 3134TIP3    H130961   1.453   5.717   0.909 -2.1646  0.6519 -0.1077
 3134TIP3    H230962   1.517   5.593   0.968  0.7940  1.5476 -1.2803
 3135TIP3   OH230963   0.709   3.122   1.481  0.0911  0.1021 -0.5198
 3135TIP3    H130964   0.721   3.028   1.468 -2.2748 -0.5883  1.4308
 3135TIP3    H230965   0.769   3.145   1.552 -1.6183 -0.7626  1.3071
 3136TIP3   OH230966   1.732   6.430   1.775 -0.0094 -0.6489  0.1403
 3136TIP3    H130967   1.699   6.432   1.864 -0.4474 -1.9226  0.0307
 3136TIP3    H230968   1.758   6.338   1.761  0.4088 -0.3923 -0.9103
 3137TIP3   OH230969   6.218   1.520   2.494 -0.2336  0.4236  0.3181
 3137TIP3    H130970   6.176   1.605   2.505  2.7873  1.9556  0.9983
 3137TIP3    H230971   6.287   1.519   2.560 -0.1808 -2.6330  0.3579
 3138TIP3   OH230972   6.387   0.373   1.108 -0.1868  0.3810  0.7660
 3138TIP3    H130973   6.373   0.319   1.186 -0.2204 -0.2091  0.3615
 3138TIP3    H230974   6.478   0.356   1.083 -1.4549 -3.6543 -2.3466
 3139TIP3   OH230975   1.950   5.139   0.137  0.5754  0.5873  0.2319
 3139TIP3    H130976   1.924   5.151   0.046 -0.5088 -0.7195  0.3455
 3139TIP3    H230977   2.009   5.212   0.155  1.7790  0.2055 -1.8790
 3140TIP3   OH230978   5.439   1.273   7.455 -0.2444  0.5422 -0.7058
 3140TIP3    H130979   5.508   1.320   7.407 -0.0778  1.3394  0.2900
 3140TIP3    H230980   5.358   1.302   7.414 -0.2112  2.4607  0.4829
 3141TIP3   OH230981   5.292   0.105   3.245 -0.0844  0.2491  0.2347
 3141TIP3    H130982   5.340   0.047   3.304  0.3134  1.3849  1.0883
 3141TIP3    H230983   5.331   0.192   3.261  0.3067  0.5536 -1.9925
 3142TIP3   OH230984   4.553   4.896   8.632 -0.4061 -0.3268  0.3418
 3142TIP3    H130985   4.563   4.827   8.567  0.4610 -1.1966  1.3415
 3142TIP3    H230986   4.563   4.851   8.716 -1.2300  0.8002  1.0757
 3143TIP3   OH230987   2.895   4.357   8.579 -0.4777  0.4311 -0.6675
 3143TIP3    H130988   2.938   4.419   8.637 -0.2866  0.9922 -1.3940
 3143TIP3    H230989   2.835   4.410   8.526  0.8061  0.2724 -2.3745
 3144TIP3   OH230990   6.445   1.685   8.035 -0.6269  0.6067  0.7328
 3144TIP3    H130991   6.437   1.760   8.094 -2.7872  0.9557  0.0877
 3144TIP3    H230992   6.397   1.711   7.957  0.0972 -0.7906 -0.2172
 3145TIP3   OH230993   4.673   0.806   1.805  0.4191  1.2134 -0.6231
 3145TIP3    H130994   4.749   0.748   1.799 -1.5091 -1.7368  0.8334
 3145TIP3    H230995   4.683   0.850   1.889  0.1086  0.0445  0.0591
 3146TIP3   OH230996   3.841   1.433   8.579  0.1390  0.5575 -0.0006
 3146TIP3    H130997   3.794   1.467   8.654  1.9215  1.5396  0.7377
 3146TIP3    H230998   3.931   1.421   8.610  0.8632  0.6993 -1.8688
 3147TIP3   OH230999   1.296   0.136   0.702  0.3912 -0.2388 -0.6148
 3147TIP3    H131000   1.270   0.087   0.625  1.7031 -0.5197 -0.9020
 3147TIP3    H231001   1.269   0.082   0.776  0.6226 -0.7562 -0.9072
 3148TIP3   OH231002   4.614   4.684   1.758  0.0043  0.2181  0.0649
 3148TIP3    H131003   4.550   4.642   1.700 -1.3267  1.0824  0.8547
 3148TIP3    H231004   4.608   4.777   1.737  1.2472  0.2955 -0.0446
 3149TIP3   OH231005   2.816   5.051   0.203 -0.3491  0.2270  0.1637
 3149TIP3    H131006   2.814   4.960   0.174 -1.0544  0.3638 -0.2494
 3149TIP3    H231007   2.896   5.058   0.255  0.1711 -0.3932 -0.5380
 3150TIP3   OH231008   1.006   0.336   1.049  0.1700  0.3946 -0.2238
 3150TIP3    H131009   0.910   0.329   1.052  0.2385 -0.6539  0.1891
 3150TIP3    H231010   1.035   0.299   1.132  0.9426  0.6806 -0.3583
 3151TIP3   OH231011   6.468   1.184   7.569 -0.3971 -0.0266 -0.3668
 3151TIP3    H131012   6.374   1.181   7.586 -0.0187 -0.2214  1.8925
 3151TIP3    H231013   6.505   1.118   7.627  1.2022  0.4378 -0.8252
 3152TIP3   OH231014   4.511   2.767   2.235 -0.0636  0.3531 -0.3201
 3152TIP3    H131015   4.556   2.714   2.301 -1.1230 -1.6639 -1.1125
 3152TIP3    H231016   4.577   2.783   2.168 -0.0239 -1.1448 -0.6824
 3153TIP3   OH231017   2.909   3.168   7.790  0.2086  0.3035 -0.8441
 3153TIP3    H131018   2.997   3.195   7.817  0.4583 -0.8721 -0.4375
 3153TIP3    H231019   2.853   3.191   7.864  0.0980  1.3385 -1.2261
 3154TIP3   OH231020   0.085   1.979   0.576 -0.2613  0.1628 -0.0392
 3154TIP3    H131021   0.156   1.967   0.639 -0.6768 -0.1273  0.3845
 3154TIP3    H231022   0.122   2.037   0.510  0.1181  0.6574  0.5861
 3155TIP3   OH231023   3.944   0.488   1.184  0.6678  0.3883 -0.0420
 3155TIP3    H131024   4.007   0.556   1.162 -0.4168  1.6245  0.5405
 3155TIP3    H231025   3.994   0.406   1.179  1.2168  0.7865 -4.0780
 3156TIP3   OH231026   2.140   0.596   8.357  0.2024 -0.4674  0.9202
 3156TIP3    H131027   2.093   0.679   8.345  0.1144 -0.5935  0.3887
 3156TIP3    H231028   2.175   0.602   8.447  0.1398  0.1148  0.9138
 3157TIP3   OH231029   2.164   3.194   8.403  0.7407  0.1600  0.3876
 3157TIP3    H131030   2.111   3.134   8.350 -0.0171 -0.2441  1.5677
 3157TIP3    H231031   2.254   3.167   8.387  0.4065 -1.6380  1.2522
 3158TIP3   OH231032   5.783   3.736   2.264  0.1786  0.3037 -0.1479
 3158TIP3    H131033   5.864   3.691   2.238  0.1041 -0.6086  1.0955
 3158TIP3    H231034   5.797   3.759   2.356 -0.6779  0.8266 -0.1421
 3159TIP3   OH231035   3.214   2.305   1.560  0.5261 -0.3159 -0.1158
 3159TIP3    H131036   3.228   2.243   1.632 -0.5220  0.5857  0.8914
 3159TIP3    H231037   3.209   2.250   1.482 -0.0419 -1.4852  0.7168
 3160TIP3   OH231038   4.919   4.125   1.339  0.2337  0.3057  0.2018
 3160TIP3    H131039   4.883   4.148   1.425  0.8360  2.0701  0.0146
 3160TIP3    H231040   4.978   4.052   1.357  0.1712  0.4915  1.2453
 3161TIP3   OH231041   3.343   1.695   2.082  0.6746 -0.6826  0.0004
 3161TIP3    H131042   3.289   1.698   2.004 -0.0312  0.1739  0.4957
 3161TIP3    H231043   3.348   1.602   2.105 -1.1304 -0.7566  0.2814
 3162TIP3   OH231044   4.461   4.015   7.840  0.1703  0.4035 -0.0754
 3162TIP3    H131045   4.422   3.931   7.862  1.0827 -0.1062 -0.3159
 3162TIP3    H231046   4.394   4.060   7.789 -0.7401  0.2832  0.9851
 3163TIP3   OH231047   1.532   0.258   1.965  0.0053 -0.3610 -0.3995
 3163TIP3    H131048   1.515   0.204   2.042 -1.9101  1.2658  0.4272
 3163TIP3    H231049   1.463   0.233   1.903 -0.7343  0.8785 -0.1128
 3164TIP3   OH231050   2.619   2.115   0.918  0.0868 -0.0295 -0.5184
 3164TIP3    H131051   2.640   2.207   0.905  0.0906 -0.0329 -0.5363
 3164TIP3    H231052   2.533   2.116   0.960 -0.4199 -0.0513 -1.5426
 3165TIP3   OH231053   0.732   3.883   0.326  0.3989 -0.4476 -0.3367
 3165TIP3    H131054   0.757   3.858   0.237  1.9097 -1.8127  0.4164
 3165TIP3    H231055   0.645   3.846   0.339 -0.1837  0.4590 -1.4856
 3166TIP3   OH231056   5.538   2.908   8.128  0.0457 -0.3474  0.5708
 3166TIP3    H131057   5.483   2.956   8.189 -0.5502 -0.7795  0.3755
 3166TIP3    H231058   5.623   2.902   8.173  0.7249  2.4429 -0.1252
 3167TIP3   OH231059   2.525   5.659   8.025  0.1783  0.4038  0.1821
 3167TIP3    H131060   2.577   5.736   8.046  0.4475 -0.3307  2.5051
 3167TIP3    H231061   2.439   5.694   8.002  0.9417  1.4885 -1.1440
 3168TIP3   OH231062   6.143   6.565   7.882  0.0375 -0.1559 -0.3301
 3168TIP3    H131063   6.052   6.546   7.905  0.0667 -1.9801 -1.4870
 3168TIP3    H231064   6.187   6.480   7.888  1.3989  0.4761 -0.9549
 3169TIP3   OH231065   3.740   1.274   1.098 -0.4961  0.6481 -0.1853
 3169TIP3    H131066   3.753   1.229   1.181 -0.4498 -0.6779 -0.8888
 3169TIP3    H231067   3.829   1.287   1.064 -0.5502  0.4210 -0.4174
 3170TIP3   OH231068   1.093   1.880   3.461  0.3491 -0.0528  0.5643
 3170TIP3    H131069   1.175   1.860   3.505  1.1025 -1.4069 -1.3257
 3170TIP3    H231070   1.066   1.798   3.420 -0.0716  1.1545 -1.7707
 3171TIP3   OH231071   0.184   6.101   1.725 -0.1714  0.2570 -0.0729
 3171TIP3    H131072   0.150   6.056   1.802 -1.6386  1.1354 -0.1729
 3171TIP3    H231073   0.276   6.116   1.745 -0.1369 -0.9441  0.8145
 3172TIP3   OH231074   4.871   5.479   0.117 -0.1491 -0.1133  0.0439
 3172TIP3    H131075   4.894   5.405   0.175 -0.2173 -1.5265 -1.6457
 3172TIP3    H231076   4.787   5.510   0.150  1.1551  1.1319  2.5335
 3173TIP3   OH231077   6.540   6.474   1.462  0.0497  0.5898  0.0572
 3173TIP3    H131078   6.451   6.497   1.491 -0.0785 -0.6536  0.7028
 3173TIP3    H231079   6.547   6.512   1.375 -0.9672  1.0701  0.1651
 3174TIP3   OH231080   3.951   4.384   8.299  0.4014  0.0140 -0.3546
 3174TIP3    H131081   3.986   4.386   8.388 -1.2712  1.5912  0.3370
 3174TIP3    H231082   4.019   4.341   8.248  1.9405  0.1483  1.4583
 3175TIP3   OH231083   2.268   3.324   3.045 -0.0256 -0.1244  0.0769
 3175TIP3    H131084   2.250   3.418   3.048 -0.1970 -0.1745  2.0997
 3175TIP3    H231085   2.344   3.315   2.987 -0.5895  1.1305 -0.9074
 3176TIP3   OH231086   2.521   0.537   8.253 -0.4183 -0.6608  0.3797
 3176TIP3    H131087   2.582   0.463   8.258 -0.4106 -0.7592 -0.8829
 3176TIP3    H231088   2.576   0.613   8.237 -0.5031 -0.5159  0.7742
 3177TIP3   OH231089   1.732   4.754   8.385  0.1881  0.5119  0.2100
 3177TIP3    H131090   1.694   4.715   8.464 -0.1966  2.8496  1.2799
 3177TIP3    H231091   1.816   4.710   8.375 -0.8442 -1.6240  0.4050
 3178TIP3   OH231092   5.109   2.870   8.208 -0.2537  0.1054  0.2559
 3178TIP3    H131093   5.080   2.873   8.299 -2.5795 -0.3473 -0.4020
 3178TIP3    H231094   5.188   2.924   8.206 -2.0564  3.0757  1.8734
 3179TIP3   OH231095   3.131   2.778   1.588 -0.0026  0.3285 -0.0185
 3179TIP3    H131096   3.209   2.831   1.607 -0.2471  1.0109 -0.8416
 3179TIP3    H231097   3.160   2.716   1.521  0.0324  0.0769  0.2315
 3180TIP3   OH231098   1.106   0.533   0.500 -0.2370  0.7219 -0.4480
 3180TIP3    H131099   1.051   0.456   0.485  0.8411 -0.2325  0.2931
 3180TIP3    H231100   1.110   0.542   0.595  0.8654  0.7742 -0.4869
 3181TIP3   OH231101   1.362   1.265   2.564  0.3528  0.0407 -0.1863
 3181TIP3    H131102   1.421   1.275   2.639  1.4406 -1.4729 -0.7785
 3181TIP3    H231103   1.285   1.317   2.587  1.8726  2.0752  0.6312
 3182TIP3   OH231104   0.985   6.278   2.984 -0.2856 -0.3720  0.0416
 3182TIP3    H131105   1.002   6.212   3.052 -2.6187  0.2647  1.3395
 3182TIP3    H231106   0.999   6.230   2.902  1.1704 -1.5786  0.9323
 3183TIP3   OH231107   1.191   3.710   0.755 -0.6048  0.1864 -0.2201
 3183TIP3    H131108   1.123   3.777   0.760 -1.9530 -1.1575  0.0742
 3183TIP3    H231109   1.150   3.639   0.705  0.8856 -0.3187 -0.7634
 3184TIP3   OH231110   0.595   1.015   1.493  0.3648  0.5480  0.3982
 3184TIP3    H131111   0.592   0.993   1.400 -0.5329  0.5043  0.4214
 3184TIP3    H231112   0.563   1.105   1.497 -1.8217 -0.1688  0.8392
 3185TIP3   OH231113   6.037   1.059   0.792  0.1568  0.1148  0.5736
 3185TIP3    H131114   6.102   1.085   0.858  2.2682 -0.2204 -1.2557
 3185TIP3    H231115   6.047   0.965   0.784 -0.5895  0.0546  0.2642
 3186TIP3   OH231116   3.784   6.602   2.777  0.0337 -0.2264  0.6168
 3186TIP3    H131117   3.880   6.609   2.780  0.0261  0.1015  0.2228
 3186TIP3    H231118   3.759   6.652   2.699 -0.3408 -1.6798 -0.2159
 3187TIP3   OH231119   3.150   4.885   8.279  0.2692  0.0063 -0.1932
 3187TIP3    H131120   3.058   4.907   8.290  0.5707  1.4206 -0.3517
 3187TIP3    H231121   3.185   4.953   8.221  1.3853 -0.5857 -0.2554
 3188TIP3   OH231122   4.740   6.482   1.159  0.2305  0.2156  0.6255
 3188TIP3    H131123   4.808   6.498   1.225  1.7862 -1.2162 -0.5563
 3188TIP3    H231124   4.784   6.499   1.075 -1.1851  0.2582 -0.1312
 3189TIP3   OH231125   4.373   6.549   2.013 -0.0817 -0.6724  0.0194
 3189TIP3    H131126   4.442   6.611   2.037 -1.1132 -0.0889  1.6270
 3189TIP3    H231127   4.418   6.483   1.959  1.3801  0.5338 -0.3204
 3190TIP3   OH231128   0.364   1.441   1.215 -0.2317  0.2775 -0.0392
 3190TIP3    H131129   0.425   1.465   1.284 -0.3778  2.1343 -0.5061
 3190TIP3    H231130   0.295   1.507   1.219 -1.0559 -0.4970 -0.9394
 3191TIP3   OH231131   4.272   5.309   1.816 -0.1568 -0.6378 -0.4592
 3191TIP3    H131132   4.264   5.405   1.814  1.0250 -0.5234 -0.6956
 3191TIP3    H231133   4.362   5.294   1.845 -1.0076 -1.7223  1.7719
 3192TIP3   OH231134   3.720   6.672   1.897  0.5357 -0.1223 -0.0961
 3192TIP3    H131135   3.705   6.583   1.930  1.3752 -0.4587 -0.5976
 3192TIP3    H231136   3.811   6.691   1.917  0.2438  0.8108  0.4068
 3193TIP3   OH231137   4.600   1.534   0.717 -0.0625  0.3952  0.1240
 3193TIP3    H131138   4.635   1.467   0.659  1.3016  1.2376 -0.0791
 3193TIP3    H231139   4.661   1.537   0.791 -0.6022  0.7936  0.5658
 3194TIP3   OH231140   3.355   3.026   1.464  0.2292  0.2727  0.8720
 3194TIP3    H131141   3.296   3.040   1.538  1.2741 -1.1113  2.0267
 3194TIP3    H231142   3.403   3.108   1.456  0.0287  0.4800  1.6822
 3195TIP3   OH231143   0.482   5.635   2.053 -0.3751  0.6143 -0.6332
 3195TIP3    H131144   0.534   5.555   2.060  1.4261  1.7890  0.1447
 3195TIP3    H231145   0.419   5.629   2.125 -0.2991 -0.1022 -0.6161
 3196TIP3   OH231146   5.111   0.129   1.612  0.4121 -0.2025  0.3326
 3196TIP3    H131147   5.177   0.124   1.680  1.4423 -0.1862 -0.6433
 3196TIP3    H231148   5.052   0.056   1.631 -0.1715  0.6771  2.0765
 3197TIP3   OH231149   6.455   2.795   0.463  0.4164 -0.2919 -0.3618
 3197TIP3    H131150   6.445   2.703   0.439  1.7387 -0.6266  0.2560
 3197TIP3    H231151   6.540   2.799   0.507 -0.3151  0.9224  1.0446
 3198TIP3   OH231152   0.168   2.440   0.693 -0.2630 -0.2930  0.4723
 3198TIP3    H131153   0.199   2.352   0.673  0.8166  0.1160  0.2591
 3198TIP3    H231154   0.125   2.432   0.778  2.9292 -0.4063  2.2219
 3199TIP3   OH231155   1.851   2.967   8.343  0.4686  0.2220 -0.2230
 3199TIP3    H131156   1.820   2.987   8.431  0.4577 -1.2311  0.1370
 3199TIP3    H231157   1.943   2.942   8.356  0.6642  0.6684 -0.7229
 3200TIP3   OH231158   0.265   5.640   8.520  0.2046 -0.3189  0.0899
 3200TIP3    H131159   0.338   5.578   8.525  1.5335  1.0151 -1.4642
 3200TIP3    H231160   0.257   5.675   8.609  1.0038 -0.9837  0.4404
 3201TIP3   OH231161   6.608   5.656   1.253 -0.7107 -0.0071 -0.1988
 3201TIP3    H131162   6.647   5.584   1.302 -0.9071 -0.1062 -0.1866
 3201TIP3    H231163   6.637   5.735   1.298 -0.4539 -0.0765 -0.2409
 3202TIP3   OH231164   3.687   6.621   2.302 -0.4705 -0.1100  0.3785
 3202TIP3    H131165   3.700   6.660   2.389  2.7253 -0.1829  0.0358
 3202TIP3    H231166   3.650   6.692   2.249 -2.5312 -0.0832  1.7262
 3203TIP3   OH231167   4.519   0.377   2.293 -0.1555  0.1003  0.2968
 3203TIP3    H131168   4.608   0.411   2.288  0.8113 -2.2911  0.1434
 3203TIP3    H231169   4.478   0.426   2.365  1.3349  1.0658  0.5213
 3204TIP3   OH231170   5.811   2.620   1.745 -0.4211  0.4360  0.0300
 3204TIP3    H131171   5.722   2.588   1.728 -0.2778  0.7726 -1.5250
 3204TIP3    H231172   5.817   2.625   1.840 -2.9269  2.7841  0.1825
 3205TIP3   OH231173   4.797   2.481   8.677  0.1468  0.4079 -0.0580
 3205TIP3    H131174   4.884   2.502   8.643 -0.3858 -1.3252 -2.8742
 3205TIP3    H231175   4.749   2.564   8.673  0.7786  0.7310 -1.6231
 3206TIP3   OH231176   3.955   4.135   0.398 -0.2653  0.6071 -0.1713
 3206TIP3    H131177   3.903   4.057   0.417 -1.0265  0.7040 -1.6717
 3206TIP3    H231178   3.932   4.158   0.308 -0.6890  3.0613  0.4894
 3207TIP3   OH231179   0.196   5.109   1.949 -0.2465  0.0808 -0.0566
 3207TIP3    H131180   0.119   5.132   2.002 -0.6871 -0.1797 -0.5779
 3207TIP3    H231181   0.234   5.193   1.924  0.0968  0.2128  0.8524
 3208TIP3   OH231182   2.012   6.447   1.441 -0.2021 -0.5492 -0.6035
 3208TIP3    H131183   2.064   6.389   1.496 -0.7192  0.1577  0.6728
 3208TIP3    H231184   1.931   6.398   1.424 -0.6071 -0.2409  0.4070
 3209TIP3   OH231185   3.639   3.039   2.974  0.2716  0.2955  0.3828
 3209TIP3    H131186   3.634   3.045   3.070 -0.8401  2.2917  0.2765
 3209TIP3    H231187   3.731   3.051   2.953  0.3059  1.5957  1.1702
 3210TIP3   OH231188   4.853   5.004   2.681  0.0912  0.4911 -0.1976
 3210TIP3    H131189   4.788   4.996   2.751  0.7108 -0.6986  0.2652
 3210TIP3    H231190   4.837   4.927   2.626 -0.1277  1.2059 -1.1535
 3211TIP3   OH231191   0.258   6.434   1.498 -0.2110  0.7826  0.8521
 3211TIP3    H131192   0.251   6.338   1.501  1.9019  0.5686  0.7190
 3211TIP3    H231193   0.255   6.455   1.405  0.3594  0.7103  0.8091
 3212TIP3   OH231194   4.413   1.031   2.836 -0.1490  0.2085  0.9135
 3212TIP3    H131195   4.436   1.045   2.745 -0.5377 -1.2454  0.5607
 3212TIP3    H231196   4.469   1.090   2.885  1.4182 -0.3314 -0.1623
 3213TIP3   OH231197   5.390   1.385   2.655  0.2021 -0.1959 -0.3394
 3213TIP3    H131198   5.472   1.433   2.664 -0.3387  0.7388 -0.3313
 3213TIP3    H231199   5.331   1.425   2.718  0.0234 -1.5297  0.3780
 3214TIP3   OH231200   1.371   2.209   2.630  0.0396  0.4654  0.4005
 3214TIP3    H131201   1.419   2.271   2.574 -1.0558  2.2831  1.3572
 3214TIP3    H231202   1.412   2.219   2.716  0.4048 -0.8191  0.3929
 3215TIP3   OH231203   0.297   1.918   0.738 -0.4170  0.1958 -0.2032
 3215TIP3    H131204   0.379   1.929   0.786 -1.7670 -0.7805  2.5276
 3215TIP3    H231205   0.285   1.824   0.734 -1.0718  0.3169 -1.2215
 3216TIP3   OH231206   5.029   5.089   0.987 -0.1099  0.1889  0.1260
 3216TIP3    H131207   5.007   5.051   0.902 -0.8524  1.3417 -0.2246
 3216TIP3    H231208   5.116   5.053   1.007 -0.4536 -1.0595 -0.5206
 3217TIP3   OH231209   3.921   4.763   1.331 -0.7323  0.1727  0.4170
 3217TIP3    H131210   4.016   4.765   1.319 -0.5369 -1.9403  1.1107
 3217TIP3    H231211   3.890   4.702   1.264 -1.4139 -0.2477  1.0970
 3218TIP3   OH231212   5.143   0.444   1.966 -0.1071  0.5182 -0.3319
 3218TIP3    H131213   5.084   0.437   1.891 -0.6693  0.8054  0.0755
 3218TIP3    H231214   5.125   0.531   2.002  0.0669  0.3323  0.2116
 3219TIP3   OH231215   3.386   5.800   2.622  0.0697 -0.3142 -0.4121
 3219TIP3    H131216   3.386   5.787   2.527 -0.2100 -0.5397 -0.3849
 3219TIP3    H231217   3.308   5.853   2.639  1.0519  1.2257 -0.4874
 3220TIP3   OH231218   0.794   2.299   7.713 -0.1150 -0.0139  0.5928
 3220TIP3    H131219   0.835   2.310   7.627  1.6159 -2.9498  0.8945
 3220TIP3    H231220   0.702   2.282   7.694 -0.0292  0.6813 -0.5541
 3221TIP3   OH231221   0.456   1.590   2.510  0.1402  0.3684 -0.3372
 3221TIP3    H131222   0.390   1.659   2.508 -1.5592 -1.1309  0.8647
 3221TIP3    H231223   0.468   1.566   2.419 -1.9638 -0.1639 -0.5285
 3222TIP3   OH231224   3.357   3.705   0.894 -0.4770  0.0532  0.3329
 3222TIP3    H131225   3.364   3.623   0.942  0.5677  0.1255  0.3384
 3222TIP3    H231226   3.297   3.686   0.822  0.6625 -1.0927 -0.3741
 3223TIP3   OH231227   1.984   1.016   0.105  0.7304  0.2930  0.2153
 3223TIP3    H131228   1.992   0.957   0.179 -0.1403  1.1518  1.0248
 3223TIP3    H231229   1.925   0.971   0.045 -2.0476  1.3290  1.9638
 3224TIP3   OH231230   6.641   2.968   8.019  0.3291  0.6310  0.0458
 3224TIP3    H131231   6.617   2.877   8.037 -0.2086  0.8954  0.7075
 3224TIP3    H231232   6.689   2.964   7.936  2.4249 -0.5801  1.2342
 3225TIP3   OH231233   5.948   4.952   2.287  0.3504  0.0421 -0.1345
 3225TIP3    H131234   5.950   4.858   2.267  0.2265 -0.1548  0.7172
 3225TIP3    H231235   5.857   4.977   2.271 -0.7029 -0.9073  3.4008
 3226TIP3   OH231236   3.145   2.267   8.615 -0.3933 -0.2006 -0.0851
 3226TIP3    H131237   3.096   2.342   8.647 -0.6637 -0.9177  1.2275
 3226TIP3    H231238   3.236   2.296   8.613 -0.5978  0.4350 -0.4647
 3227TIP3   OH231239   1.151   1.474   0.523  0.2464  0.3434 -0.6323
 3227TIP3    H131240   1.225   1.472   0.462  0.7500 -0.0927 -0.0280
 3227TIP3    H231241   1.076   1.497   0.469  1.3380  4.6434 -0.6950
 3228TIP3   OH231242   3.451   2.860   2.453 -0.1909  0.0681 -0.2403
 3228TIP3    H131243   3.397   2.833   2.528  0.8393 -1.0212  0.1606
 3228TIP3    H231244   3.466   2.953   2.466  0.4222 -0.2045  1.2566
 3229TIP3   OH231245   0.134   1.939   1.017  0.2444  0.0980 -0.2574
 3229TIP3    H131246   0.040   1.957   1.015  0.2521  0.1261 -1.9621
 3229TIP3    H231247   0.143   1.854   0.974  0.7526 -1.4800  2.6946
 3230TIP3   OH231248   2.458   1.005   1.934  0.3863 -0.2916  0.2012
 3230TIP3    H131249   2.522   1.014   2.005  0.9822 -0.6133 -0.2839
 3230TIP3    H231250   2.503   0.953   1.868  0.0794  0.5895 -0.7204
 3231TIP3   OH231251   4.414   0.400   8.292 -0.5979  0.7736  0.1508
 3231TIP3    H131252   4.466   0.476   8.267 -0.6289  0.4538 -0.9322
 3231TIP3    H231253   4.401   0.352   8.211 -1.2057 -0.0066  0.6930
 3232TIP3   OH231254   2.160   3.734   2.125 -0.0420 -0.3515 -0.4208
 3232TIP3    H131255   2.245   3.710   2.089  0.4470 -0.7156  0.9337
 3232TIP3    H231256   2.096   3.696   2.064  0.7366 -2.8561  0.1933
 3233TIP3   OH231257   6.066   4.615   1.380  0.1844 -0.3190  0.0708
 3233TIP3    H131258   6.158   4.596   1.365 -0.0435 -1.0824 -0.4359
 3233TIP3    H231259   6.032   4.641   1.294 -0.2168 -0.6759  0.1187
 3234TIP3   OH231260   2.516   4.682   8.315 -0.5963  0.2322  0.3368
 3234TIP3    H131261   2.458   4.755   8.334  0.0872  1.7716 -2.7625
 3234TIP3    H231262   2.582   4.718   8.256  1.0168 -2.4306  0.3223
 3235TIP3   OH231263   1.266   6.304   0.545  0.0594  0.2068  0.2855
 3235TIP3    H131264   1.241   6.236   0.482  0.4439  0.4083 -0.0812
 3235TIP3    H231265   1.303   6.374   0.492  1.2265  0.0010  0.8028
 3236TIP3   OH231266   3.862   2.014   8.855  0.2946 -0.0994 -0.0108
 3236TIP3    H131267   3.786   2.065   8.881 -0.5784 -1.0031 -0.7080
 3236TIP3    H231268   3.910   2.071   8.795 -0.3664  0.1174 -0.3371
 3237TIP3   OH231269   5.886   6.082   7.660 -0.4850 -0.2447 -0.2322
 3237TIP3    H131270   5.875   6.159   7.605 -0.6606 -0.6691 -0.7903
 3237TIP3    H231271   5.972   6.094   7.701 -0.3696  0.0845 -0.5697
 3238TIP3   OH231272   3.150   4.948   0.057  0.1905 -0.6393 -0.1568
 3238TIP3    H131273   3.107   5.027   0.024  1.1493  0.6648  1.5467
 3238TIP3    H231274   3.091   4.877   0.032 -1.0451  0.6696 -1.1615
 3239TIP3   OH231275   2.767   2.327   7.333 -0.1475 -0.0754  0.1811
 3239TIP3    H131276   2.816   2.385   7.391  1.1518  1.0009 -1.8962
 3239TIP3    H231277   2.715   2.385   7.277 -0.2090 -0.9855 -0.7459
 3240TIP3   OH231278   3.141   2.917   8.344 -0.6608  0.3720 -0.0315
 3240TIP3    H131279   3.090   2.914   8.263  0.6610 -0.1520 -0.8887
 3240TIP3    H231280   3.151   2.825   8.370  0.5229  0.3913 -0.3512
 3241TIP3   OH231281   1.539   2.639   8.132 -0.3216 -0.3740 -0.7150
 3241TIP3    H131282   1.494   2.563   8.096  0.7748 -0.3650 -2.1942
 3241TIP3    H231283   1.517   2.711   8.074 -0.0206  0.0807 -0.2807
 3242TIP3   OH231284   6.709   2.030   1.657 -0.2462  0.5885  0.1015
 3242TIP3    H131285   6.732   2.109   1.607 -1.8208  0.9899 -0.0660
 3242TIP3    H231286   6.691   1.964   1.590  0.9930  0.0816  0.2407
 3243TIP3   OH231287   4.322   5.502   2.781  0.2825 -0.2946 -0.4397
 3243TIP3    H131288   4.374   5.479   2.704  1.2299  0.2926  0.0109
 3243TIP3    H231289   4.252   5.437   2.782  1.3001 -1.4282 -0.7701
 3244TIP3   OH231290   0.794   4.729   7.315 -0.0140  0.4172 -0.3040
 3244TIP3    H131291   0.859   4.667   7.283  0.5721 -0.1129  1.8047
 3244TIP3    H231292   0.829   4.761   7.398 -1.2328  2.0979 -0.3772
 3245TIP3   OH231293   1.276   4.629   2.608 -1.1675 -0.3264  0.4674
 3245TIP3    H131294   1.369   4.637   2.629 -1.1200 -0.1197  0.1738
 3245TIP3    H231295   1.264   4.537   2.587 -0.7616 -0.1082 -0.7876
 3246TIP3   OH231296   0.284   2.118   2.981 -0.4743 -0.1402  0.3364
 3246TIP3    H131297   0.347   2.160   3.039 -2.4592  1.8790  1.2175
 3246TIP3    H231298   0.248   2.045   3.032 -0.5117  0.1672  0.7552
 3247TIP3   OH231299   3.628   4.144   8.144 -0.4414 -0.2050 -0.0954
 3247TIP3    H131300   3.685   4.185   8.078 -1.9700 -1.8071 -2.5843
 3247TIP3    H231301   3.542   4.139   8.102 -0.9953 -3.3260  1.1042
 3248TIP3   OH231302   6.592   0.028   1.995 -0.2702 -0.0699  0.0479
 3248TIP3    H131303   6.625  -0.053   1.957 -1.0447 -0.5563  0.3850
 3248TIP3    H231304   6.572   0.084   1.920  0.3325 -0.1569 -0.1820
 3249TIP3   OH231305   4.144   0.686   1.124 -0.4482 -0.1749  0.1892
 3249TIP3    H131306   4.082   0.758   1.131  0.7345  0.7084  2.1311
 3249TIP3    H231307   4.217   0.721   1.073 -1.9336 -1.6101 -3.2927
 3250TIP3   OH231308   0.239   2.210   2.450 -0.1540 -0.4566  0.0601
 3250TIP3    H131309   0.232   2.115   2.444 -1.2582 -0.4751  1.1516
 3250TIP3    H231310   0.207   2.231   2.538 -1.8830  1.0672 -0.8420
 3251TIP3   OH231311   3.911   2.030   2.953 -0.7188  0.8420 -0.7130
 3251TIP3    H131312   3.831   2.020   3.005 -1.2951  0.9290 -1.5550
 3251TIP3    H231313   3.933   2.123   2.960  0.4242  0.4770  1.0842
 3252TIP3   OH231314   2.560   6.112   2.022  0.2956  0.0022 -0.0272
 3252TIP3    H131315   2.489   6.114   1.958 -0.1055 -0.4563  0.4027
 3252TIP3    H231316   2.623   6.049   1.986  0.7743  0.8440 -0.7016
 3253TIP3   OH231317   2.369   3.630   2.014  0.0253  0.1223  0.1591
 3253TIP3    H131318   2.345   3.578   1.938 -0.9578 -1.1210  1.2754
 3253TIP3    H231319   2.374   3.567   2.086  2.1960  1.0621  0.8973
 3254TIP3   OH231320   4.781   5.608   8.602 -0.5261  0.1500 -0.1591
 3254TIP3    H131321   4.852   5.667   8.626  0.7173 -2.0861  2.0496
 3254TIP3    H231322   4.701   5.654   8.628  0.3922  0.8694  1.4821
 3255TIP3   OH231323   3.775   4.821   2.219 -0.6993 -0.2905 -0.1732
 3255TIP3    H131324   3.847   4.873   2.254  0.1911 -1.1970 -0.5923
 3255TIP3    H231325   3.704   4.884   2.206  0.5730  0.9860 -1.3602
 3256TIP3   OH231326   3.640   5.061   2.089  0.1863  0.6338 -0.3254
 3256TIP3    H131327   3.582   5.002   2.040  0.2666  2.2567 -2.5823
 3256TIP3    H231328   3.586   5.092   2.162 -0.7593 -0.1896 -0.6453
 3257TIP3   OH231329   2.852   2.106   2.168  0.3342  0.6854  0.0817
 3257TIP3    H131330   2.768   2.082   2.130 -1.1595  2.5794  1.9740
 3257TIP3    H231331   2.856   2.058   2.251  1.2608  0.3994 -0.1135
 3258TIP3   OH231332   1.280   1.790   1.027 -0.2496 -0.2570 -0.1331
 3258TIP3    H131333   1.253   1.699   1.013 -0.6537  0.0473 -1.4649
 3258TIP3    H231334   1.363   1.798   0.981  0.0649 -0.0798  0.4491
 3259TIP3   OH231335   2.209   6.523   8.632  0.7489 -0.4404 -0.3289
 3259TIP3    H131336   2.285   6.560   8.677  1.2391 -0.6383 -0.9798
 3259TIP3    H231337   2.179   6.451   8.689  2.0895 -1.4655 -0.8744
 3260TIP3   OH231338   3.171   0.956   8.470 -0.1436 -0.2704 -0.0085
 3260TIP3    H131339   3.235   0.986   8.535  0.4351 -1.1432 -0.1575
 3260TIP3    H231340   3.168   1.026   8.405  0.7663 -0.2729 -0.0679
 3261TIP3   OH231341   2.076   6.714   8.487 -0.4868  0.5458 -0.0820
 3261TIP3    H131342   2.023   6.774   8.539 -0.2649 -0.2661  1.0982
 3261TIP3    H231343   2.119   6.658   8.550 -1.1006 -1.2258 -1.1515
 3262TIP3   OH231344   2.687   6.345   8.900 -0.2194 -0.7683 -0.3243
 3262TIP3    H131345   2.631   6.278   8.939 -1.1184  0.3610  0.3953
 3262TIP3    H231346   2.731   6.386   8.975 -2.1377  1.5829 -0.3441
 3263TIP3   OH231347   2.491   5.524   1.049 -0.2091  0.6261  0.4133
 3263TIP3    H131348   2.576   5.494   1.081  1.1505  1.4839 -2.0799
 3263TIP3    H231349   2.443   5.443   1.030  0.7651  0.0917  0.1372
 3264TIP3   OH231350   6.443   4.946   7.933  0.3960  0.1750  0.2434
 3264TIP3    H131351   6.425   4.971   7.843 -2.7084 -0.6024  0.5496
 3264TIP3    H231352   6.425   5.025   7.984 -1.6157 -0.3591  0.4593
 3265TIP3   OH231353   5.782   5.968   8.031  0.5986 -0.2095  0.4705
 3265TIP3    H131354   5.811   6.048   7.987 -0.4121 -0.1672 -0.1494
 3265TIP3    H231355   5.861   5.933   8.073  1.8005 -0.6702 -2.0278
 3266TIP3   OH231356   5.130   5.339   8.207  0.2127 -0.6575 -0.0120
 3266TIP3    H131357   5.188   5.322   8.133  0.7774  0.0404  0.2635
 3266TIP3    H231358   5.176   5.303   8.282  0.7679  0.7508  0.3604
 3267TIP3   OH231359   5.761   4.411   2.737  0.1027 -0.1038 -0.3698
 3267TIP3    H131360   5.805   4.491   2.708  0.7539  0.1641  1.2568
 3267TIP3    H231361   5.706   4.439   2.810 -0.7878 -0.9046 -0.7114
 3268TIP3   OH231362   6.273   6.627   1.985 -0.4647  0.0080 -0.2720
 3268TIP3    H131363   6.232   6.713   1.994 -1.6781 -0.4832 -0.9268
 3268TIP3    H231364   6.253   6.581   2.066 -1.1648 -0.2020 -0.5579
 3269TIP3   OH231365   3.500   1.670   3.227  0.4698 -0.2873 -0.1827
 3269TIP3    H131366   3.535   1.642   3.312 -0.8240 -0.6382  0.2472
 3269TIP3    H231367   3.489   1.765   3.235  0.0440 -0.3643  0.1586
 3270TIP3   OH231368   3.764   1.305   2.377  0.1654 -0.1546  0.3851
 3270TIP3    H131369   3.859   1.304   2.382  0.1912 -1.0499 -0.0029
 3270TIP3    H231370   3.735   1.324   2.466  0.7087  0.4789  0.4261
 3271TIP3   OH231371   6.647   0.346   7.649 -0.1027 -0.2107  0.0484
 3271TIP3    H131372   6.634   0.406   7.723 -1.8108  0.2528 -0.5826
 3271TIP3    H231373   6.647   0.259   7.688 -2.1454 -0.0515  0.5391
 3272TIP3   OH231374   2.680   2.585   8.201  0.1626 -0.1369  0.2307
 3272TIP3    H131375   2.587   2.607   8.188 -0.2582 -2.0962 -0.4949
 3272TIP3    H231376   2.706   2.637   8.277 -1.2706  1.1537 -0.1069
 3273TIP3   OH231377   5.146   2.045   2.810 -0.2159  0.1563 -0.4610
 3273TIP3    H131378   5.172   2.123   2.859 -0.0186  1.6884 -2.8460
 3273TIP3    H231379   5.050   2.047   2.811 -0.2247 -0.1244  0.2480
 3274TIP3   OH231380   6.585   0.920   0.271 -0.1792  0.0620  0.6212
 3274TIP3    H131381   6.585   0.970   0.352  0.6665 -0.0845  0.7275
 3274TIP3    H231382   6.649   0.965   0.215 -0.0310 -0.4046  0.4078
 3275TIP3   OH231383   2.831   4.773   3.692 -0.3444  0.5516 -0.6599
 3275TIP3    H131384   2.835   4.848   3.751 -0.4356 -0.4316  0.6174
 3275TIP3    H231385   2.775   4.709   3.736 -0.5345 -0.1557 -1.8707
 3276TIP3   OH231386   5.824   6.393   0.718  0.0792  0.1028  0.4223
 3276TIP3    H131387   5.796   6.361   0.633  1.9664  0.1825 -0.2622
 3276TIP3    H231388   5.782   6.479   0.726  1.2766  0.9061 -1.2598
 3277TIP3   OH231389   4.229   1.681   1.477  0.1797 -0.3266 -0.6253
 3277TIP3    H131390   4.261   1.667   1.567 -0.4868 -0.9096 -0.4658
 3277TIP3    H231391   4.283   1.752   1.443  2.2302 -1.8402 -0.6828
 3278TIP3   OH231392   2.009   4.038   2.425  0.0629 -0.2084  0.1578
 3278TIP3    H131393   2.061   4.109   2.463 -1.4352 -0.5876  3.1745
 3278TIP3    H231394   1.924   4.077   2.406  0.5243 -0.2198 -2.3897
 3279TIP3   OH231395   2.327   4.814   1.474 -0.3133  0.2537  0.4283
 3279TIP3    H131396   2.251   4.836   1.420 -1.4265 -0.7134  1.5339
 3279TIP3    H231397   2.318   4.720   1.492 -0.0610  0.5430  2.3571
 3280TIP3   OH231398   1.446   6.461   7.862 -0.4568 -0.4543 -0.0685
 3280TIP3    H131399   1.410   6.448   7.774  0.0753  0.1839 -0.3859
 3280TIP3    H231400   1.370   6.486   7.915 -0.5403  0.6662 -0.6849
 3281TIP3   OH231401   5.291   0.152   2.334  0.4662  0.2250  0.3443
 3281TIP3    H131402   5.292   0.063   2.300 -1.1138  0.2573  0.1537
 3281TIP3    H231403   5.209   0.159   2.382  0.2332  1.7806 -0.2090
 3282TIP3   OH231404   1.305   3.427   2.653 -0.0875 -0.1283  0.3565
 3282TIP3    H131405   1.335   3.476   2.578 -2.6984 -0.5561 -1.0982
 3282TIP3    H231406   1.274   3.493   2.715 -0.5860  0.1816 -0.2117
 3283TIP3   OH231407   0.540   6.315   8.745 -0.0844  0.5620  0.0589
 3283TIP3    H131408   0.606   6.248   8.731 -0.8260 -0.1046 -0.3519
 3283TIP3    H231409   0.487   6.282   8.817 -1.2048  0.0726 -0.9355
 3284TIP3   OH231410   1.025   1.895   1.864  0.3763 -0.1647  0.3348
 3284TIP3    H131411   1.017   1.805   1.835 -1.1138  0.3498 -0.9783
 3284TIP3    H231412   0.939   1.918   1.898  0.8987  0.5895  1.2089
 3285TIP3   OH231413   2.738   6.519   0.586  0.4340 -0.1610  0.5473
 3285TIP3    H131414   2.691   6.437   0.600  0.5582 -0.1227  1.2651
 3285TIP3    H231415   2.766   6.517   0.495  0.4676 -0.9351  0.5747
 3286TIP3   OH231416   1.589   5.220   0.874 -0.0192  0.8320 -0.0874
 3286TIP3    H131417   1.496   5.200   0.860 -0.3490  1.3905  1.0931
 3286TIP3    H231418   1.588   5.284   0.946  1.3146  0.3707  0.3582
 3287TIP3   OH231419   0.609   0.854   3.326  0.9862 -0.5308 -0.0378
 3287TIP3    H131420   0.569   0.769   3.309  1.7633 -1.4704  2.3703
 3287TIP3    H231421   0.702   0.841   3.308  1.0509 -0.0833 -0.0276
 3288TIP3   OH231422   4.251   6.571   0.990 -0.3568 -0.1534 -0.7080
 3288TIP3    H131423   4.228   6.509   1.058  3.8754  0.1058  1.2873
 3288TIP3    H231424   4.214   6.655   1.019 -0.9064 -0.5635 -0.2225
 3289TIP3   OH231425   0.488   2.380   0.725  0.3682  0.5625 -0.3204
 3289TIP3    H131426   0.540   2.440   0.777  0.7234 -0.0646  0.0628
 3289TIP3    H231427   0.533   2.296   0.732 -1.1023 -0.1902  0.6880
 3290TIP3   OH231428   0.445   2.932   8.507 -0.4825 -0.2011 -0.7565
 3290TIP3    H131429   0.371   2.891   8.553 -0.2629  2.2194  2.0659
 3290TIP3    H231430   0.522   2.886   8.539 -0.5143 -0.2779 -0.7899
 3291TIP3   OH231431   3.657   2.136   8.526  0.3056  0.0482  0.0968
 3291TIP3    H131432   3.633   2.130   8.434 -1.3524  0.6963  0.4632
 3291TIP3    H231433   3.691   2.049   8.547  0.0674 -0.3142 -0.9498
 3292TIP3   OH231434   5.921   2.444   1.957  0.5158  0.3678  0.5227
 3292TIP3    H131435   5.988   2.394   1.910 -0.8439 -1.2125  0.2012
 3292TIP3    H231436   5.971   2.512   2.003  2.3371 -0.7287  0.2791
 3293TIP3   OH231437   4.733   0.703   1.259 -0.3491  1.1758  0.4548
 3293TIP3    H131438   4.656   0.673   1.307 -0.2828  1.4731  0.7497
 3293TIP3    H231439   4.700   0.723   1.171 -0.5132  0.8405  0.4387
 3294TIP3   OH231440   1.766   2.245   0.558 -0.0441 -0.2749 -0.2308
 3294TIP3    H131441   1.778   2.255   0.464  1.0838  2.2686  0.0940
 3294TIP3    H231442   1.754   2.151   0.571 -0.7976 -0.6332 -2.9398
 3295TIP3   OH231443   1.941   2.143   1.409 -0.3901 -0.3519  0.0156
 3295TIP3    H131444   2.036   2.128   1.408 -0.2426  0.5399 -0.3925
 3295TIP3    H231445   1.926   2.194   1.488 -0.2562  1.1138 -0.8851
 3296TIP3   OH231446   4.152   5.532   2.295  0.3450 -0.0065  0.5083
 3296TIP3    H131447   4.188   5.443   2.290  2.5453  0.8304  0.3146
 3296TIP3    H231448   4.105   5.543   2.212 -0.8774 -1.3005  0.9735
 3297TIP3   OH231449   6.080   1.115   1.225 -0.3763 -0.1835 -0.4763
 3297TIP3    H131450   6.033   1.047   1.273 -1.9243  0.3205 -1.1991
 3297TIP3    H231451   6.079   1.190   1.283  0.4198 -0.4638 -0.0943
 3298TIP3   OH231452   1.318   1.959   0.263  0.1911 -0.4708 -0.1935
 3298TIP3    H131453   1.288   1.898   0.330  2.7373 -1.5422  0.0896
 3298TIP3    H231454   1.286   1.922   0.181 -0.3839 -0.8173  0.1767
 3299TIP3   OH231455   3.416   5.057   2.279  0.6979 -0.5624 -0.3143
 3299TIP3    H131456   3.373   4.973   2.260 -0.9721  0.4198 -1.0573
 3299TIP3    H231457   3.351   5.123   2.257  2.4996  1.0170 -1.2234
 3300TIP3   OH231458   6.315   4.518   0.639 -0.2380  0.7252  0.0205
 3300TIP3    H131459   6.410   4.530   0.632 -0.3779  1.1783 -1.4399
 3300TIP3    H231460   6.300   4.431   0.601 -0.5856  1.4805 -1.6755
 3301TIP3   OH231461   3.652   6.746   2.540  0.2987 -0.4992 -0.5001
 3301TIP3    H131462   3.572   6.711   2.578  0.0583  1.1987  0.6774
 3301TIP3    H231463   3.681   6.813   2.602  2.4839 -0.8590 -1.0528
 3302TIP3   OH231464   4.742   5.231   3.527 -0.1505 -0.1829  0.3535
 3302TIP3    H131465   4.837   5.241   3.525 -0.2515  0.9004  0.4351
 3302TIP3    H231466   4.714   5.247   3.437 -0.2895 -0.1236  0.4067
 3303TIP3   OH231467   2.032   5.308   7.751  0.1462 -0.0251 -0.0528
 3303TIP3    H131468   1.965   5.248   7.717 -0.5562  1.0276 -0.5892
 3303TIP3    H231469   2.073   5.260   7.822 -0.2784 -1.2128 -0.5767
 3304TIP3   OH231470   6.296   3.338   0.438 -0.4314  0.4394  0.2744
 3304TIP3    H131471   6.237   3.284   0.490  1.0386  0.3613  1.9430
 3304TIP3    H231472   6.318   3.284   0.362  1.1069 -1.4608  1.9637
 3305TIP3   OH231473   5.547   1.144   1.430 -0.9513 -0.2066  0.5312
 3305TIP3    H131474   5.485   1.210   1.461  0.2938  0.8407  0.9249
 3305TIP3    H231475   5.575   1.178   1.344  0.3599  0.2784  1.1259
 3306TIP3   OH231476   5.174   1.272   2.388 -0.1608 -0.0657  0.3306
 3306TIP3    H131477   5.092   1.260   2.341 -0.4649 -0.3877  0.9258
 3306TIP3    H231478   5.231   1.202   2.356  0.9272  1.8156 -2.2121
 3307TIP3   OH231479   4.337   6.120   0.715  0.6102  0.0641 -0.2816
 3307TIP3    H131480   4.255   6.079   0.742  0.0187  1.0705 -0.4984
 3307TIP3    H231481   4.398   6.047   0.705  0.6307 -0.5002  2.7806
 3308TIP3   OH231482   1.468   4.755   1.107  0.3102  0.0776  0.1866
 3308TIP3    H131483   1.414   4.834   1.092  0.2705 -0.1272 -0.8650
 3308TIP3    H231484   1.494   4.760   1.199 -1.1979  0.3856  0.6252
 3309TIP3   OH231485   2.709   5.916   0.452 -0.2446  0.4838 -0.1176
 3309TIP3    H131486   2.664   5.887   0.532  1.6615 -0.3339  0.7215
 3309TIP3    H231487   2.658   5.991   0.422 -4.0067 -2.1587 -1.0222
 3310TIP3   OH231488   5.795   6.639   2.271  0.0500 -0.4624 -0.2148
 3310TIP3    H131489   5.804   6.626   2.366 -1.9018 -2.9172 -0.2853
 3310TIP3    H231490   5.717   6.694   2.262  0.7523  0.5316 -0.4126
 3311TIP3   OH231491   5.019   2.187   1.791  0.3015  0.0146  0.0164
 3311TIP3    H131492   5.043   2.116   1.731  0.8086  2.5675 -3.1194
 3311TIP3    H231493   5.075   2.261   1.764  0.1356  1.5530  3.3702
 3312TIP3   OH231494   3.854   5.407   2.980 -0.2252 -0.0282 -0.3346
 3312TIP3    H131495   3.877   5.500   2.979 -0.8755  0.1323 -0.8204
 3312TIP3    H231496   3.882   5.376   3.067  2.1561  0.0548 -1.0064
 3313TIP3   OH231497   6.432   1.826   2.389 -0.2843  0.2129  0.4076
 3313TIP3    H131498   6.427   1.757   2.323 -0.7430  0.5181  0.1155
 3313TIP3    H231499   6.341   1.850   2.405 -0.1189  0.8878  0.3563
 3314TIP3   OH231500   5.765   1.474   1.154  0.0700  0.2188 -0.5114
 3314TIP3    H131501   5.690   1.463   1.095 -0.0951  1.4689 -0.5656
 3314TIP3    H231502   5.832   1.513   1.099 -0.8207  3.5655  0.5442
 3315TIP3   OH231503   2.087   5.794   1.689  0.1425 -0.4793 -0.0840
 3315TIP3    H131504   2.142   5.727   1.732  0.4097  0.3812  0.9749
 3315TIP3    H231505   2.002   5.785   1.731  0.5629  0.7558  1.1076
 3316TIP3   OH231506   1.078   4.385   1.805  0.3831 -0.1052 -0.2731
 3316TIP3    H131507   1.025   4.426   1.873  1.3455  0.8912 -0.0912
 3316TIP3    H231508   1.088   4.452   1.738  1.2296 -0.3362 -0.3959
 3317TIP3   OH231509   0.929   5.950   1.795  0.0842  0.3590 -0.2636
 3317TIP3    H131510   0.858   6.010   1.770 -3.3740 -3.0927  0.3818
 3317TIP3    H231511   0.907   5.922   1.883  1.2243 -2.1620 -0.7007
 3318TIP3   OH231512   5.974   1.510   0.981 -0.1213  0.2698  0.5154
 3318TIP3    H131513   6.007   1.576   0.922 -1.6872 -0.6998 -1.5830
 3318TIP3    H231514   6.047   1.490   1.039  0.8517  2.6685  0.2152
 3319TIP3   OH231515   2.195   2.335   1.831  0.2214  0.7872 -0.2021
 3319TIP3    H131516   2.237   2.417   1.804  0.3340  1.1017  0.8553
 3319TIP3    H231517   2.268   2.280   1.860  0.1944  0.1201 -1.3366
 3320TIP3   OH231518   6.013   4.207   2.509  0.4360  0.1140  0.1982
 3320TIP3    H131519   6.078   4.272   2.483  0.7882 -0.4431 -0.3377
 3320TIP3    H231520   5.929   4.250   2.491  0.6596  0.0132 -1.2682
 3321TIP3   OH231521   2.603   0.061   1.939 -0.9777  0.3710 -0.4005
 3321TIP3    H131522   2.528   0.106   1.900 -1.8904 -1.1390 -0.4767
 3321TIP3    H231523   2.565   0.005   2.007  0.4699  2.2328  2.1124
 3322TIP3   OH231524   4.556   3.963   0.516  0.2346  0.0490  0.0867
 3322TIP3    H131525   4.490   3.958   0.585  1.0373 -0.1897  0.8601
 3322TIP3    H231526   4.630   4.010   0.557  1.0236 -0.7829 -0.3513
 3323TIP3   OH231527   6.471   2.215   3.566 -0.1608  0.5047  0.5559
 3323TIP3    H131528   6.550   2.205   3.512 -0.2071  0.0528  0.5642
 3323TIP3    H231529   6.499   2.267   3.641  0.3249 -0.3082  0.9535
 3324TIP3   OH231530   3.102   2.216   0.182  0.0748  0.2744  0.0114
 3324TIP3    H131531   3.165   2.268   0.132  1.0364 -0.9297 -0.0944
 3324TIP3    H231532   3.094   2.134   0.132 -1.6873  0.4384 -0.0393
 3325TIP3   OH231533   3.932   6.112   1.964  0.1052  1.0681  0.2036
 3325TIP3    H131534   3.986   6.142   2.037 -0.3886 -1.6739  1.8533
 3325TIP3    H231535   3.842   6.118   1.996 -0.0334 -1.8352  0.6646
 3326TIP3   OH231536   6.186   2.324   8.164 -0.1409  0.3548  0.0705
 3326TIP3    H131537   6.244   2.374   8.107  0.9417 -0.4380  0.4278
 3326TIP3    H231538   6.132   2.272   8.104  2.7911 -2.5235 -0.3820
 3327TIP3   OH231539   3.152   4.136   2.705 -0.4643 -0.4029 -0.9845
 3327TIP3    H131540   3.187   4.223   2.721  0.2688 -0.0541 -3.9551
 3327TIP3    H231541   3.067   4.136   2.750  1.0122  0.5230  2.0274
 3328TIP3   OH231542   1.859   2.054   0.865 -0.4019 -0.3198  0.2817
 3328TIP3    H131543   1.883   2.088   0.778 -0.7136  1.4064  0.8289
 3328TIP3    H231544   1.942   2.023   0.901  0.0782  0.6445  0.0578
 3329TIP3   OH231545   4.051   3.661   8.653  0.1133 -0.4768  0.0977
 3329TIP3    H131546   4.049   3.578   8.701  0.6979 -1.2877 -1.2306
 3329TIP3    H231547   4.126   3.653   8.594  0.0187  0.8955 -0.2415
 3330TIP3   OH231548   4.042   4.246   7.796 -0.1986 -0.2127 -0.5058
 3330TIP3    H131549   4.054   4.155   7.824 -1.1445 -1.0895 -2.7271
 3330TIP3    H231550   4.125   4.288   7.816  0.2719 -1.5659  0.5538
 3331TIP3   OH231551   5.888   2.795   8.711  0.5881  0.7937 -0.3743
 3331TIP3    H131552   5.907   2.705   8.736 -0.4686  0.3154 -1.2094
 3331TIP3    H231553   5.954   2.815   8.644  0.7070  0.5782 -0.3232
 3332TIP3   OH231554   4.077   5.795   1.266 -0.3761  0.7144  0.4379
 3332TIP3    H131555   3.986   5.768   1.253  0.0808 -0.7317  0.0844
 3332TIP3    H231556   4.071   5.887   1.291 -1.8377  1.1024 -1.1595
 3333TIP3   OH231557   6.720   2.282   0.041 -0.0249 -0.3063 -0.1614
 3333TIP3    H131558   6.758   2.237   0.116  0.3973 -0.6588 -0.5807
 3333TIP3    H231559   6.685   2.212  -0.014 -3.2098  0.0710  1.1819
 3334TIP3   OH231560   6.723   5.060   0.343 -0.0592  0.3052  0.3617
 3334TIP3    H131561   6.716   4.975   0.386 -1.1914 -0.3910 -1.1064
 3334TIP3    H231562   6.814   5.065   0.314  0.6831  0.7091  2.5489
 3335TIP3   OH231563   0.739   5.602   1.795  0.4519 -0.0461 -0.8597
 3335TIP3    H131564   0.660   5.634   1.752  0.3807  0.5070 -0.3264
 3335TIP3    H231565   0.765   5.672   1.854  1.4020 -0.1868 -1.0946
 3336TIP3   OH231566   0.480   1.171   3.065  0.1797 -0.4753 -0.0937
 3336TIP3    H131567   0.403   1.155   3.120 -0.6505  0.1914 -1.0399
 3336TIP3    H231568   0.520   1.085   3.055 -0.2065 -0.7640  0.7514
 3337TIP3   OH231569   0.487   0.943   1.758 -0.2443 -0.2265  0.0470
 3337TIP3    H131570   0.557   0.948   1.823 -0.2329 -0.1120  0.0274
 3337TIP3    H231571   0.532   0.958   1.674  0.1484 -2.8027 -0.2632
 3338TIP3   OH231572   2.778   4.915   0.676  0.0985 -0.1729  0.2009
 3338TIP3    H131573   2.852   4.866   0.711 -0.1585 -0.5315  0.2526
 3338TIP3    H231574   2.815   4.969   0.606  0.4372 -0.2110  0.3513
 3339TIP3   OH231575   3.105   4.414   2.034 -0.4207  0.1997 -0.0600
 3339TIP3    H131576   3.169   4.372   1.976  0.1637  0.7567  0.1746
 3339TIP3    H231577   3.147   4.413   2.120 -0.6546  0.7243  0.0627
 3340TIP3   OH231578   5.717   2.165   0.406 -0.0835 -0.1673 -0.7559
 3340TIP3    H131579   5.646   2.229   0.416 -0.2690 -0.3648 -0.8072
 3340TIP3    H231580   5.767   2.174   0.486 -0.4832 -0.4134 -0.4759
 3341TIP3   OH231581   2.885   4.078   7.387  0.5757  0.2734 -0.6380
 3341TIP3    H131582   2.950   4.008   7.396 -2.0359 -2.0818  2.2105
 3341TIP3    H231583   2.900   4.135   7.462 -0.6785 -0.4352  0.1948
 3342TIP3   OH231584   6.496   2.737   1.423  0.1157 -0.4732  0.0433
 3342TIP3    H131585   6.519   2.763   1.334 -0.6960 -1.5601 -0.5154
 3342TIP3    H231586   6.432   2.803   1.452 -1.6698 -1.5523 -1.2238
 3343TIP3   OH231587   0.844   4.411   8.535 -0.6553  0.1776  0.4582
 3343TIP3    H131588   0.806   4.485   8.486  0.8355  0.4161 -0.4041
 3343TIP3    H231589   0.935   4.436   8.547 -0.2823 -1.2609  0.7162
 3344TIP3   OH231590   1.539   1.274   8.365  0.5507  0.4592  0.1381
 3344TIP3    H131591   1.470   1.331   8.400  0.8570  0.8765  0.0743
 3344TIP3    H231592   1.501   1.186   8.366  0.8466  0.3093  2.3268
 3345TIP3   OH231593   3.051   0.150   1.721  0.6627 -0.4590  0.7834
 3345TIP3    H131594   3.076   0.062   1.749  1.0843 -0.7799 -0.5463
 3345TIP3    H231595   3.075   0.206   1.795  0.3146 -1.4549  1.6762
 3346TIP3   OH231596   4.138   2.432   7.350 -0.3979 -0.0256  0.0368
 3346TIP3    H131597   4.125   2.377   7.427 -0.0335 -1.4769 -0.8743
 3346TIP3    H231598   4.079   2.394   7.284  1.5924 -0.9177 -1.3538
 3347TIP3   OH231599   4.960   5.348   1.082  0.3602  0.0000  0.0320
 3347TIP3    H131600   5.035   5.406   1.092 -0.4388  1.1077 -0.1496
 3347TIP3    H231601   4.998   5.261   1.069  1.7939  0.9624 -3.5651
 3348TIP3   OH231602   2.632   4.947   1.930  0.1889  0.2057 -0.2780
 3348TIP3    H131603   2.576   4.888   1.880 -0.6848 -0.6243  1.5906
 3348TIP3    H231604   2.572   4.991   1.990  0.8478  2.8327 -1.3947
 3349TIP3   OH231605   4.750   2.229   0.655  0.5415 -0.8230 -0.2020
 3349TIP3    H131606   4.676   2.285   0.629  0.4227 -0.7383  0.3161
 3349TIP3    H231607   4.714   2.140   0.653  0.3382 -0.7555  0.3474
 3350TIP3   OH231608   3.369   3.817   8.288 -0.1284 -0.0267 -0.1693
 3350TIP3    H131609   3.279   3.805   8.317 -0.7111  1.4777 -1.2491
 3350TIP3    H231610   3.366   3.805   8.193  0.3924  1.9751 -0.4962
 3351TIP3   OH231611   1.994   2.286   1.643  0.3996 -0.0574 -0.1965
 3351TIP3    H131612   2.057   2.318   1.708 -0.4642  0.9517  0.1799
 3351TIP3    H231613   1.926   2.354   1.640  0.6020  0.1026 -2.4503
 3352TIP3   OH231614   6.277   2.766   7.832  0.4533  0.2077  0.1169
 3352TIP3    H131615   6.259   2.833   7.898  0.1046  2.3129 -1.9889
 3352TIP3    H231616   6.357   2.723   7.863 -1.1574 -0.8575  3.2763
 3353TIP3   OH231617   2.094   5.387   0.443  0.0273  0.5396  0.2535
 3353TIP3    H131618   2.156   5.319   0.417 -0.6026 -0.1089  0.4199
 3353TIP3    H231619   2.094   5.448   0.370  0.7527  0.4706  0.1887
 3354TIP3   OH231620   0.721   0.240   2.255  0.1972  0.1660 -0.0169
 3354TIP3    H131621   0.699   0.332   2.264 -0.2395  0.2604 -1.7076
 3354TIP3    H231622   0.659   0.195   2.313 -0.2003  0.8621  0.1121
 3355TIP3   OH231623   5.904   6.335   7.223  0.3450 -0.4012  0.1344
 3355TIP3    H131624   5.940   6.410   7.176 -1.9824  0.9277  0.2800
 3355TIP3    H231625   5.878   6.274   7.154  1.6985 -0.8309 -0.0147
 3356TIP3   OH231626   4.842   0.097   0.087 -0.1292  0.0327 -0.5444
 3356TIP3    H131627   4.747   0.107   0.099 -0.3744 -2.2769  0.0473
 3356TIP3    H231628   4.853   0.083  -0.007 -0.4956 -0.4534 -0.5237
 3357TIP3   OH231629   3.684   3.571   7.565  0.1171  0.0172  0.6552
 3357TIP3    H131630   3.719   3.493   7.522  1.4505  1.2286 -0.5335
 3357TIP3    H231631   3.651   3.626   7.494  0.2223  1.0393  1.3734
 3358TIP3   OH231632   0.533   1.467   8.202 -0.1027 -0.3859  0.1842
 3358TIP3    H131633   0.470   1.422   8.258  0.3709 -2.0061 -0.5079
 3358TIP3    H231634   0.494   1.464   8.114  0.4811 -0.5215 -0.0797
 3359TIP3   OH231635   4.570   5.728   1.360  0.6239  0.3372 -0.2369
 3359TIP3    H131636   4.556   5.799   1.423 -1.5440  0.6265 -0.9571
 3359TIP3    H231637   4.501   5.740   1.295  0.2319 -2.4131 -0.4274
 3360TIP3   OH231638   5.420   2.487   1.493  0.5488 -0.6818  0.0791
 3360TIP3    H131639   5.466   2.491   1.577 -0.3673  1.3398  0.5484
 3360TIP3    H231640   5.490   2.490   1.427  1.2400 -1.5421  0.7502
 3361TIP3   OH231641   3.984   1.777   2.114  0.7227  0.4637 -0.3549
 3361TIP3    H131642   3.894   1.749   2.128  1.1978 -0.9536 -0.0049
 3361TIP3    H231643   3.988   1.800   2.021  0.3520 -0.8200 -0.6999
 3362TIP3   OH231644   2.183   5.535   2.636 -0.6369 -0.0664  0.3964
 3362TIP3    H131645   2.264   5.573   2.669 -1.1519  1.7277 -0.3128
 3362TIP3    H231646   2.210   5.453   2.594  1.0319  1.1039 -0.9571
 3363TIP3   OH231647   2.267   4.326   0.853 -0.3038 -0.4120 -0.1593
 3363TIP3    H131648   2.310   4.241   0.843 -1.0593 -0.8231  0.0157
 3363TIP3    H231649   2.192   4.323   0.795 -0.5042  0.0254  0.0668
 3364TIP3   OH231650   5.111   2.287   2.038  0.8830 -0.2678  0.0111
 3364TIP3    H131651   5.044   2.327   2.093 -0.7127 -0.8518 -1.3997
 3364TIP3    H231652   5.063   2.257   1.960  2.6302 -1.6142 -0.6155
 3365TIP3   OH231653   6.371   1.188   2.889  0.1827  0.9151  0.0429
 3365TIP3    H131654   6.443   1.131   2.864  0.3286  0.4109  1.5160
 3365TIP3    H231655   6.330   1.213   2.806 -0.8531 -2.5638 -0.6676
 3366TIP3   OH231656   0.785   3.129   0.615 -0.1690  0.0860 -0.4098
 3366TIP3    H131657   0.780   3.048   0.564  0.4304  0.4261 -1.0192
 3366TIP3    H231658   0.848   3.110   0.685 -0.9219 -0.3498  0.1723
 3367TIP3   OH231659   6.173   4.637   7.388 -0.2050  0.2985  0.1584
 3367TIP3    H131660   6.105   4.700   7.413 -0.3837 -0.8330  2.8796
 3367TIP3    H231661   6.240   4.644   7.457  1.3718 -0.1957 -1.2460
 3368TIP3   OH231662   6.361   0.471   0.302  0.3996  0.2384 -0.1738
 3368TIP3    H131663   6.332   0.502   0.216  0.4174 -0.0142 -0.2725
 3368TIP3    H231664   6.359   0.375   0.295  1.0300  0.2151 -0.1073
 3369TIP3   OH231665   0.016   4.255   8.640 -0.0598 -0.1753  0.8727
 3369TIP3    H131666  -0.030   4.259   8.556  2.3523 -0.9912 -0.5710
 3369TIP3    H231667  -0.042   4.302   8.701 -2.1769 -0.0982 -1.0620
 3370TIP3   OH231668   5.913   4.635   3.203  0.4776  0.7967 -0.2006
 3370TIP3    H131669   5.937   4.691   3.129 -1.0473 -2.2907 -3.3130
 3370TIP3    H231670   5.996   4.601   3.236  1.1421  1.1232 -1.4757
 3371TIP3   OH231671   4.909   4.167   2.354  0.2350  0.1293 -0.3327
 3371TIP3    H131672   4.881   4.212   2.434  0.1790  1.1916 -0.9405
 3371TIP3    H231673   4.997   4.202   2.337  0.7572 -0.9913 -0.0838
 3372TIP3   OH231674   6.524   3.247   8.686 -0.4428  0.0926 -0.8291
 3372TIP3    H131675   6.522   3.210   8.598  0.5927  0.8721 -1.2091
 3372TIP3    H231676   6.533   3.341   8.671  1.2131  0.1163  0.0870
 3373TIP3   OH231677   2.199   5.872   3.106  0.9215 -0.5515 -0.4637
 3373TIP3    H131678   2.196   5.922   3.187  1.5994  0.7053 -1.1839
 3373TIP3    H231679   2.202   5.781   3.134  1.4395 -0.1303  0.9293
 3374TIP3   OH231680   3.926   0.394   2.611 -0.3971 -0.2146  0.5729
 3374TIP3    H131681   3.850   0.401   2.668 -0.3673  1.1649  0.4932
 3374TIP3    H231682   3.914   0.312   2.564 -2.0564  0.1634  0.2779
 3375TIP3   OH231683   0.595   6.622   8.191 -0.8419  0.5391  0.3712
 3375TIP3    H131684   0.668   6.660   8.239  0.0821  0.8942 -1.2588
 3375TIP3    H231685   0.518   6.668   8.224 -0.1931  1.0563  1.2046
 3376TIP3   OH231686   4.959   1.325   0.591  0.3882  0.4808  0.0225
 3376TIP3    H131687   4.934   1.418   0.584  1.7672  0.8587 -0.1373
 3376TIP3    H231688   4.926   1.299   0.677 -0.3375  1.0043 -0.0794
 3377TIP3   OH231689   2.211   3.490   2.395 -0.2290 -0.3002 -0.2242
 3377TIP3    H131690   2.181   3.424   2.458 -1.0417  0.0975 -0.1767
 3377TIP3    H231691   2.131   3.516   2.349  0.3219 -0.4258 -1.2673
 3378TIP3   OH231692   4.822   1.170   1.071 -0.2776  0.2196  0.6372
 3378TIP3    H131693   4.874   1.147   1.148 -0.4529 -1.9125  0.1781
 3378TIP3    H231694   4.759   1.098   1.063  0.1704  0.0280 -1.8745
 3379TIP3   OH231695   4.966   0.876   0.188 -0.1979  0.6262  0.2965
 3379TIP3    H131696   4.941   0.783   0.191  2.1013 -0.0268  2.4295
 3379TIP3    H231697   5.048   0.877   0.139  0.2826  1.3963  1.1018
 3380TIP3   OH231698   0.251   5.073   1.260 -0.3286 -0.2945 -0.1570
 3380TIP3    H131699   0.228   5.130   1.334 -2.2444  0.2967 -1.1504
 3380TIP3    H231700   0.347   5.067   1.264 -0.3429  0.1243  2.0484
 3381TIP3   OH231701   4.403   1.502   0.949  0.3510  0.0488 -0.8204
 3381TIP3    H131702   4.441   1.544   1.026  0.4561 -1.6801  0.1185
 3381TIP3    H231703   4.478   1.462   0.905 -0.1001 -2.1976  0.2951
 3382TIP3   OH231704   2.087   2.891   8.485 -0.3873 -0.3433  0.5595
 3382TIP3    H131705   2.032   2.836   8.541  0.0231 -0.4365  0.8746
 3382TIP3    H231706   2.176   2.862   8.503 -0.1533  0.5153  0.8303
 3383TIP3   OH231707   3.602   6.582   7.569  0.0779  0.4756 -0.3531
 3383TIP3    H131708   3.633   6.629   7.492  3.1411 -1.2362 -0.3010
 3383TIP3    H231709   3.535   6.523   7.536 -1.1919  2.1771 -1.0116
 3384TIP3   OH231710   0.260   0.886   0.398  0.3038  0.3070  0.0657
 3384TIP3    H131711   0.205   0.962   0.379  1.0802  1.1605  1.0503
 3384TIP3    H231712   0.308   0.870   0.317  0.3165  1.0501 -0.0845
 3385TIP3   OH231713   1.221   5.548   7.772  0.0425  0.1182 -0.8124
 3385TIP3    H131714   1.307   5.524   7.737  0.0217 -0.9780 -0.1625
 3385TIP3    H231715   1.164   5.551   7.695 -0.1689 -2.9927 -0.9188
 3386TIP3   OH231716   0.210   0.828   8.036 -0.0114  0.1048 -0.7625
 3386TIP3    H131717   0.279   0.770   8.067 -0.3768  0.8136  1.6051
 3386TIP3    H231718   0.147   0.770   7.994  0.6360 -0.9390 -0.3321
 3387TIP3   OH231719   3.029   1.916   8.385  0.5871  0.0082 -0.0477
 3387TIP3    H131720   3.022   2.012   8.393 -0.3125 -0.0274 -0.3148
 3387TIP3    H231721   2.944   1.884   8.415  0.4897 -0.6505 -1.0040
 3388TIP3   OH231722   6.429   5.008   7.325 -0.4178  0.0826 -0.0187
 3388TIP3    H131723   6.438   4.914   7.339  1.4604  0.0045 -1.3128
 3388TIP3    H231724   6.509   5.033   7.278 -2.0258  1.8294 -2.0731
 3389TIP3   OH231725   5.546   5.351   1.011  0.5769  1.0773 -0.3615
 3389TIP3    H131726   5.516   5.433   1.051  0.0131  2.9600 -4.1824
 3389TIP3    H231727   5.478   5.330   0.946  1.5522 -1.5541 -0.6563
 3390TIP3   OH231728   4.269   0.391   7.455 -0.0683  0.2927  0.0331
 3390TIP3    H131729   4.231   0.308   7.427 -1.9469  0.9610  0.4709
 3390TIP3    H231730   4.359   0.388   7.423 -0.5214 -1.2910 -1.2191
 3391TIP3   OH231731   5.535   3.664   7.870 -0.2466 -0.1542 -0.5247
 3391TIP3    H131732   5.557   3.632   7.782 -2.9292 -0.6321 -1.1113
 3391TIP3    H231733   5.512   3.585   7.919 -2.5132  0.4055 -0.6050
 3392TIP3   OH231734   4.267   3.108   3.051  0.1680  0.2392 -0.5303
 3392TIP3    H131735   4.245   3.163   3.127 -0.1734 -0.7568  0.1174
 3392TIP3    H231736   4.184   3.094   3.006  0.0291 -0.6660 -0.0369
 3393TIP3   OH231737   1.190   4.582   0.542 -0.3713 -0.2524 -0.4175
 3393TIP3    H131738   1.268   4.623   0.580 -1.2609  1.3727 -0.2512
 3393TIP3    H231739   1.214   4.490   0.532  1.6674  0.2418 -0.6346
 3394TIP3   OH231740   1.327   1.810   2.889  0.3626  0.5526 -0.3162
 3394TIP3    H131741   1.400   1.841   2.837  0.3370  0.6012 -0.3225
 3394TIP3    H231742   1.365   1.743   2.946  0.0044 -1.0043 -1.8243
 3395TIP3   OH231743   1.250   1.572   2.604  0.4371  0.1404 -0.3311
 3395TIP3    H131744   1.311   1.630   2.560  0.0906 -0.7583 -2.1172
 3395TIP3    H231745   1.251   1.599   2.695  3.0312  0.5307 -0.4189
 3396TIP3   OH231746   3.484   6.303   7.700 -0.8713 -0.4845  0.5673
 3396TIP3    H131747   3.430   6.224   7.708 -0.4233 -0.9285 -0.5436
 3396TIP3    H231748   3.441   6.355   7.633 -0.7195 -0.1580  0.7233
 3397TIP3   OH231749   4.841   3.567   0.527 -0.3178 -0.2233 -0.1272
 3397TIP3    H131750   4.908   3.502   0.547 -1.5615 -1.7893 -0.8342
 3397TIP3    H231751   4.888   3.636   0.480  1.1260 -0.3317  1.0876
 3398TIP3   OH231752   5.122   5.572   0.824  0.3131 -0.8380 -0.2571
 3398TIP3    H131753   5.076   5.638   0.773 -0.1185  0.6514  1.9155
 3398TIP3    H231754   5.065   5.495   0.823  0.3262 -0.8523 -1.9406
 3399TIP3   OH231755   2.097   2.769   0.871  0.5073 -0.2250 -0.1504
 3399TIP3    H131756   2.017   2.719   0.886 -0.9389  1.9620 -0.1478
 3399TIP3    H231757   2.156   2.741   0.941 -0.6264 -1.1530  0.4699
 3400TIP3   OH231758   6.250   0.783   3.014 -0.0618 -0.2587  0.6378
 3400TIP3    H131759   6.185   0.713   3.011  0.5044 -0.7911 -1.6955
 3400TIP3    H231760   6.334   0.737   3.021  0.2004  0.3338  1.6242
 3401TIP3   OH231761   5.394   1.037   1.848  0.1283 -0.1698 -0.3982
 3401TIP3    H131762   5.340   0.970   1.806 -0.4156  1.0502 -1.7536
 3401TIP3    H231763   5.355   1.048   1.935 -1.6570  0.4408 -1.2194
 3402TIP3   OH231764   3.618   5.080   8.858  0.5191 -0.1600 -0.0945
 3402TIP3    H131765   3.670   5.009   8.895  0.9633  0.2336  0.0387
 3402TIP3    H231766   3.555   5.101   8.927 -0.1187 -0.9276 -0.4189
 3403TIP3   OH231767   1.538   0.396   7.045  0.8048 -0.3298 -0.5740
 3403TIP3    H131768   1.566   0.306   7.032  2.2302 -0.0867  0.5278
 3403TIP3    H231769   1.574   0.421   7.130 -0.7137  0.8620 -0.2326
 3404TIP3   OH231770   0.957   2.598   2.193  0.1225  0.1103  0.3509
 3404TIP3    H131771   0.888   2.663   2.208 -0.5396 -0.2859 -0.8302
 3404TIP3    H231772   1.022   2.616   2.261 -0.7438  1.0392  0.9699
 3405TIP3   OH231773   2.373   1.358   1.044  0.5312 -0.2176 -0.0267
 3405TIP3    H131774   2.313   1.322   1.110 -1.3809  2.2317 -0.2515
 3405TIP3    H231775   2.388   1.287   0.983  1.2640 -2.1660  2.2647
 3406TIP3   OH231776   3.935   4.722   3.576  0.1267  0.1733 -0.2284
 3406TIP3    H131777   3.985   4.654   3.620 -0.5001 -0.2603 -0.1796
 3406TIP3    H231778   3.947   4.800   3.630 -1.6540 -0.6375  1.4774
 3407TIP3   OH231779   0.819   1.162   2.276 -0.3013  0.6255  0.1692
 3407TIP3    H131780   0.808   1.067   2.280 -0.0407  0.3903 -2.6012
 3407TIP3    H231781   0.898   1.180   2.326  0.5368 -0.8554 -0.5528
 3408TIP3   OH231782   5.739   3.311   0.697  0.4026 -0.0277 -0.2766
 3408TIP3    H131783   5.779   3.225   0.681 -1.0630 -0.6038 -1.0415
 3408TIP3    H231784   5.804   3.374   0.667  0.7066 -0.9440 -1.6326
 3409TIP3   OH231785   4.143   1.888   2.819  0.1611 -0.0556 -0.3801
 3409TIP3    H131786   4.065   1.943   2.823  0.4811  0.3705  0.0495
 3409TIP3    H231787   4.110   1.800   2.840 -0.1907  0.1333 -0.1299
 3410TIP3   OH231788   1.117   3.940   1.862 -0.0616  0.0003  0.5450
 3410TIP3    H131789   1.047   3.986   1.908  0.0589 -0.1902  0.9265
 3410TIP3    H231790   1.192   3.998   1.866 -0.1394  0.1201  0.3069
 3411TIP3   OH231791   2.007   5.343   3.325  0.4790 -0.0192  0.6459
 3411TIP3    H131792   2.033   5.261   3.366 -0.5183 -1.1839 -0.9795
 3411TIP3    H231793   1.986   5.321   3.235  1.4286  2.2627 -0.2300
 3412TIP3   OH231794   6.018   6.685   2.988 -0.0378 -0.1746 -0.2173
 3412TIP3    H131795   6.100   6.728   2.966 -0.0314 -0.2148 -0.2727
 3412TIP3    H231796   6.023   6.599   2.944  0.4793 -0.7349  0.8978
 3413TIP3   OH231797   1.629   0.049   1.731  0.3105  0.6218  0.2456
 3413TIP3    H131798   1.640   0.139   1.763 -2.6010  0.8726  0.8010
 3413TIP3    H231799   1.667  -0.005   1.800  2.1666  1.3585 -0.1247
 3414TIP3   OH231800   0.101   3.472   2.175  0.9788 -0.2273  0.6625
 3414TIP3    H131801   0.165   3.437   2.237  0.7067 -1.0300  0.4957
 3414TIP3    H231802   0.030   3.409   2.175  0.8866 -0.1503 -0.3253
 3415TIP3   OH231803   6.618   1.019   3.390 -0.0817  0.0797  0.3539
 3415TIP3    H131804   6.686   0.966   3.349  0.6802  0.2926  1.3088
 3415TIP3    H231805   6.640   1.019   3.483 -0.1522  1.9367  0.4070
 3416TIP3   OH231806   6.250   5.464   8.109  0.2437 -0.2500 -0.5342
 3416TIP3    H131807   6.162   5.488   8.140  0.8381  0.4206  0.7462
 3416TIP3    H231808   6.277   5.394   8.168  1.3337  0.9174  0.4075
 3417TIP3   OH231809   2.720   4.885   2.960  0.8197  0.2717  0.5989
 3417TIP3    H131810   2.780   4.930   3.020 -0.7047  0.4857  2.0364
 3417TIP3    H231811   2.655   4.844   3.018 -0.9287  0.7921 -0.9081
 3418TIP3   OH231812   3.926   2.931   2.213 -0.2015 -0.6008 -0.5199
 3418TIP3    H131813   3.984   2.902   2.284 -1.1921 -0.9309  0.1792
 3418TIP3    H231814   3.868   2.994   2.254  0.4295  0.6507 -1.5069
 3419TIP3   OH231815   2.812   0.485   1.684  0.1996  0.3047  0.2890
 3419TIP3    H131816   2.797   0.430   1.761 -1.5047 -2.1879 -1.6451
 3419TIP3    H231817   2.907   0.491   1.677  0.3956 -0.2468  2.0004
 3420TIP3   OH231818   6.031   5.857   8.141  0.0664  0.3166  0.0396
 3420TIP3    H131819   6.114   5.900   8.120  0.6970 -1.2999 -0.9492
 3420TIP3    H231820   6.055   5.766   8.160 -1.0500  0.6233  3.4655
 3421TIP3   OH231821   0.578   3.958   7.498 -0.1268  0.2704  0.0192
 3421TIP3    H131822   0.595   4.041   7.453  2.9634 -1.1567 -1.7781
 3421TIP3    H231823   0.494   3.929   7.462  1.1400  0.2845 -3.3450
 3422TIP3   OH231824   6.727   3.890   1.587  0.0726 -0.1289  0.4094
 3422TIP3    H131825   6.816   3.899   1.552 -1.1123  2.1614 -2.3771
 3422TIP3    H231826   6.732   3.927   1.675  2.0075 -0.8255  0.6464
 3423TIP3   OH231827   6.218   0.985   8.483 -0.1453  0.2161 -0.0384
 3423TIP3    H131828   6.225   1.054   8.548 -0.6621  0.5666 -0.3492
 3423TIP3    H231829   6.144   1.010   8.428 -1.2107 -1.2538  0.6374
 3424TIP3   OH231830   2.517   1.076   0.004  0.8511  0.2061  0.2055
 3424TIP3    H131831   2.424   1.096   0.014  0.6942 -0.6917  0.6603
 3424TIP3    H231832   2.559   1.161  -0.008  0.2358  0.8493  2.1568
 3425TIP3   OH231833   1.453   4.781   7.794  0.0201  0.3434 -0.8175
 3425TIP3    H131834   1.372   4.822   7.824  0.6959  1.3042 -0.2658
 3425TIP3    H231835   1.461   4.702   7.848  1.1577  1.9806  1.5598
 3426TIP3   OH231836   3.644   0.259   0.432  0.0501 -0.2710 -0.0073
 3426TIP3    H131837   3.619   0.348   0.408 -2.5329 -0.5241  1.3558
 3426TIP3    H231838   3.716   0.270   0.494  2.4477  0.6042 -2.7354
 3427TIP3   OH231839   6.214   1.139   0.989  0.0459 -0.0441  0.2655
 3427TIP3    H131840   6.159   1.128   1.066 -0.9155  1.0432 -0.2287
 3427TIP3    H231841   6.253   1.226   0.999  0.4483 -0.1731 -0.1399
 3428TIP3   OH231842   1.249   1.750   0.422 -0.7701 -0.0411 -0.2587
 3428TIP3    H131843   1.284   1.669   0.385 -1.0181  0.8891 -2.6668
 3428TIP3    H231844   1.274   1.745   0.515  0.4932 -2.1731 -0.6196
 3429TIP3   OH231845   5.569   4.919   0.922  0.1299 -0.6341  0.3983
 3429TIP3    H131846   5.475   4.910   0.937 -0.4104  0.1724 -1.9331
 3429TIP3    H231847   5.594   4.837   0.880  0.1378 -0.3193 -0.2289
 3430TIP3   OH231848   6.735   4.478   8.357  0.3716 -0.1002  0.0181
 3430TIP3    H131849   6.761   4.436   8.275  1.0023 -1.6715  0.9639
 3430TIP3    H231850   6.818   4.503   8.398  0.0086  2.0589 -0.4717
 3431TIP3   OH231851   6.638   2.829   8.787  0.3231  0.5392  0.6565
 3431TIP3    H131852   6.627   2.906   8.843  3.1194  0.6788  1.1662
 3431TIP3    H231853   6.582   2.763   8.827 -0.0762  1.5241  1.8163
 3432TIP3   OH231854   1.205   4.620   1.443 -0.1424  0.3710  0.2166
 3432TIP3    H131855   1.207   4.629   1.348  0.3921  1.1453  0.2879
 3432TIP3    H231856   1.222   4.527   1.460 -0.6181  0.1609 -0.4499
 3433TIP3   OH231857   3.315   3.959   1.005 -0.0944 -0.3193 -0.1000
 3433TIP3    H131858   3.307   3.868   0.976  1.8175 -0.4450 -0.3567
 3433TIP3    H231859   3.372   4.000   0.940 -1.2841  1.2000 -0.2336
 3434TIP3   OH231860   2.745   4.426   2.324  0.0387 -0.6485 -0.2223
 3434TIP3    H131861   2.817   4.363   2.318 -0.1589 -0.9109  0.1525
 3434TIP3    H231862   2.787   4.507   2.353  0.3908 -0.4267 -1.3064
 3435TIP3   OH231863   2.928   0.717   1.871  0.1406 -0.0706  0.1404
 3435TIP3    H131864   2.991   0.672   1.927  1.5173  0.9463 -0.5494
 3435TIP3    H231865   2.979   0.747   1.796 -1.5954 -1.1642 -1.5764
 3436TIP3   OH231866   2.037   1.152   1.909  0.2346  0.2081 -0.4486
 3436TIP3    H131867   2.114   1.148   1.966  0.3280  0.2433 -0.5725
 3436TIP3    H231868   2.037   1.069   1.862  0.2313  0.2345 -0.4946
 3437TIP3   OH231869   1.429   4.065   2.694 -0.1152 -0.1056 -0.3507
 3437TIP3    H131870   1.479   4.104   2.765 -0.5499 -0.0531 -0.0664
 3437TIP3    H231871   1.342   4.104   2.702  0.3032  1.2683 -2.0080
 3438TIP3   OH231872   0.023   1.967   8.785 -0.0974 -0.2504 -0.8474
 3438TIP3    H131873   0.092   1.946   8.722 -0.4151 -0.3585 -1.1634
 3438TIP3    H231874   0.051   1.926   8.866 -0.3102 -1.2161 -1.2437
 3439TIP3   OH231875   2.646   3.402   1.006 -0.0954 -0.1517  0.5486
 3439TIP3    H131876   2.606   3.482   0.971  0.1991  0.4037  1.4732
 3439TIP3    H231877   2.734   3.400   0.969 -0.2637 -0.3066  0.1470
 3440TIP3   OH231878   1.636   3.469   2.668 -0.7881  0.3066 -0.0242
 3440TIP3    H131879   1.563   3.508   2.620  0.5405  1.6721 -1.0389
 3440TIP3    H231880   1.602   3.456   2.757 -1.9323  1.9406 -0.1721
 3441TIP3   OH231881   3.380   3.584   8.642 -0.3720 -0.1138  0.0756
 3441TIP3    H131882   3.405   3.675   8.630  0.2696 -0.4823 -1.6478
 3441TIP3    H231883   3.326   3.563   8.566  0.7480 -1.5735 -0.3837
 3442TIP3   OH231884   5.813   2.389   0.207 -0.0544 -0.2010  0.5612
 3442TIP3    H131885   5.877   2.393   0.278  0.7274 -0.4404 -0.1208
 3442TIP3    H231886   5.793   2.481   0.187  0.7671 -0.0937  0.1769
 3443TIP3   OH231887   0.810   1.578   2.996  0.5437  0.1760 -0.1916
 3443TIP3    H131888   0.725   1.622   2.989  1.0216  1.0019 -0.9747
 3443TIP3    H231889   0.844   1.607   3.081 -0.3108 -0.8336  0.5192
 3444TIP3   OH231890   6.272   1.591   0.203  0.2806 -0.6843  0.1939
 3444TIP3    H131891   6.356   1.586   0.156  0.4558 -2.0365  0.6216
 3444TIP3    H231892   6.210   1.619   0.136  1.3778  2.3942  0.3162
 3445TIP3   OH231893   5.426   4.449   2.053  0.6708  0.0320 -0.0811
 3445TIP3    H131894   5.333   4.466   2.038  0.5920 -1.6895 -2.0258
 3445TIP3    H231895   5.453   4.516   2.115 -1.3730  1.9030 -1.0689
 3446TIP3   OH231896   5.376   2.813   0.979 -0.0643  0.5183  0.1427
 3446TIP3    H131897   5.391   2.718   0.978  0.3557  0.5725 -1.5197
 3446TIP3    H231898   5.322   2.828   1.057  0.9596 -0.9034  1.1821
 3447TIP3   OH231899   3.635   3.495   2.263 -0.0851 -0.4777 -0.4935
 3447TIP3    H131900   3.561   3.516   2.320 -0.7257  1.0385 -1.8116
 3447TIP3    H231901   3.711   3.532   2.309 -0.3579 -0.6806  0.1313
 3448TIP3   OH231902   6.231   1.272   3.090  0.3029  0.0083 -0.5406
 3448TIP3    H131903   6.256   1.357   3.126  0.4147  0.3226 -1.3530
 3448TIP3    H231904   6.291   1.257   3.017 -0.4001 -0.2682 -1.0780
 3449TIP3   OH231905   4.598   4.669   0.976  0.2552 -0.3797 -0.5061
 3449TIP3    H131906   4.643   4.711   1.049 -1.3877 -0.7806  0.8139
 3449TIP3    H231907   4.555   4.741   0.930  0.6760 -0.2059 -0.6314
 3450TIP3   OH231908   4.108   3.215   1.458 -0.4653 -0.5649 -0.0076
 3450TIP3    H131909   4.098   3.145   1.394 -0.2796  0.7383 -1.5383
 3450TIP3    H231910   4.199   3.209   1.487 -0.4520 -0.9379 -0.1232
 3451TIP3   OH231911   3.129   0.533   2.343  0.0323  0.0660  0.1192
 3451TIP3    H131912   3.101   0.546   2.434  0.0083 -0.5531  0.2033
 3451TIP3    H231913   3.134   0.438   2.333  0.0439  0.1313 -0.5257
 3452TIP3   OH231914   1.370   0.151   7.195 -0.3692 -0.4627  0.2110
 3452TIP3    H131915   1.405   0.081   7.140  0.8247  1.5300 -1.7388
 3452TIP3    H231916   1.423   0.148   7.274  0.2184 -1.2015 -0.1958
 3453TIP3   OH231917   0.041   2.658   7.894 -0.0816  0.2838 -0.4897
 3453TIP3    H131918   0.004   2.642   7.980  0.7732  2.2363  0.2953
 3453TIP3    H231919   0.050   2.753   7.889  2.6685  0.0596 -1.5122
 3454TIP3   OH231920   2.780   1.950   7.661  0.3327 -0.7386 -0.4269
 3454TIP3    H131921   2.756   1.983   7.574 -1.9095 -2.3609 -0.5130
 3454TIP3    H231922   2.833   1.873   7.644 -0.2940 -1.1864 -0.3868
 3455TIP3   OH231923   2.680   4.609   3.836  0.1736 -0.7440  0.5830
 3455TIP3    H131924   2.668   4.524   3.880 -1.3625 -0.6170  0.4465
 3455TIP3    H231925   2.592   4.637   3.812  0.6373  0.9978  0.7836
 3456TIP3   OH231926   0.938   2.225   7.950 -0.6339 -0.0942 -0.8555
 3456TIP3    H131927   0.865   2.181   7.994 -0.5226  0.2776 -0.2888
 3456TIP3    H231928   0.903   2.248   7.863 -0.4019 -2.0983 -1.5330
 3457TIP3   OH231929   1.704   2.346   3.273 -0.6345 -0.4376 -0.7323
 3457TIP3    H131930   1.627   2.368   3.220 -0.7047 -2.9371 -1.8037
 3457TIP3    H231931   1.753   2.285   3.218  1.0004 -0.5856  0.8230
 3458TIP3   OH231932   4.202   5.127   0.509  0.4148 -0.3915 -0.8279
 3458TIP3    H131933   4.147   5.198   0.475  0.2068 -0.7294 -1.2012
 3458TIP3    H231934   4.236   5.161   0.592  1.6150  0.7842 -1.7504
 3459TIP3   OH231935   2.573   6.690   8.536  0.3278 -0.5168  0.1718
 3459TIP3    H131936   2.578   6.712   8.443  1.6026 -0.5310  0.2237
 3459TIP3    H231937   2.558   6.774   8.579  0.1845 -0.4478 -0.0117
 3460TIP3   OH231938   5.594   3.264   8.145  0.0006  0.2231  0.1876
 3460TIP3    H131939   5.633   3.178   8.160  0.1994  0.2477 -0.1807
 3460TIP3    H231940   5.664   3.316   8.106 -0.6059  0.0311 -1.2264
 3461TIP3   OH231941   5.971   1.993   1.634 -0.5162  0.1965  0.5000
 3461TIP3    H131942   5.913   2.044   1.691  1.5805  1.3457  1.7306
 3461TIP3    H231943   5.997   1.917   1.687 -0.5545 -0.0888  0.1168
 3462TIP3   OH231944   2.217   6.759   1.951  0.2789  0.3776  0.7852
 3462TIP3    H131945   2.288   6.714   1.997 -0.7472  0.0234  2.0943
 3462TIP3    H231946   2.180   6.692   1.893 -0.8619 -0.3330  2.2894
 3463TIP3   OH231947   3.706   1.150   7.959 -0.2357  0.2272  0.2387
 3463TIP3    H131948   3.702   1.069   7.908  1.7008  0.4561 -0.3220
 3463TIP3    H231949   3.658   1.214   7.907  0.3316  0.0552 -0.4977
 3464TIP3   OH231950   2.281   3.412   1.105 -0.0212 -0.5426  0.0172
 3464TIP3    H131951   2.318   3.363   1.178  0.6774 -1.1665 -0.7221
 3464TIP3    H231952   2.227   3.347   1.059  0.2216 -0.3940 -0.4856
 3465TIP3   OH231953   2.814   3.378   3.116  0.0883 -0.1221  0.8824
 3465TIP3    H131954   2.795   3.472   3.116 -0.0434 -0.1432  0.5356
 3465TIP3    H231955   2.868   3.364   3.193 -0.7915  0.0564  1.5482
 3466TIP3   OH231956   5.547   5.104   3.120 -0.1724  0.1546 -0.2589
 3466TIP3    H131957   5.596   5.123   3.041  0.7888  0.8873  0.4923
 3466TIP3    H231958   5.505   5.187   3.143  0.6465  0.3082  0.7291
 3467TIP3   OH231959   5.486   4.915   8.421  0.3111  0.7716 -0.0176
 3467TIP3    H131960   5.439   4.976   8.479  0.2103  0.3486  0.3578
 3467TIP3    H231961   5.544   4.867   8.480 -0.8415 -0.6820 -0.0225
 3468TIP3   OH231962   3.514   4.044   0.823  0.2805  0.9644  0.3931
 3468TIP3    H131963   3.531   4.136   0.804 -0.7300  1.0312 -0.2906
 3468TIP3    H231964   3.591   4.015   0.871  0.6856  2.1240  0.4891
 3469TIP3   OH231965   5.642   4.934   1.486  0.0779 -0.6912 -0.2932
 3469TIP3    H131966   5.675   5.014   1.528  0.1338 -0.8326 -0.0675
 3469TIP3    H231967   5.648   4.867   1.554 -1.3412 -0.5682 -0.0203
 3470TIP3   OH231968   0.467   2.344   3.017  0.3502  0.1246  0.0040
 3470TIP3    H131969   0.480   2.271   3.079 -0.2214 -0.8319 -0.9689
 3470TIP3    H231970   0.535   2.331   2.951  0.8812  1.0759  0.3389
 3471TIP3   OH231971   2.620   3.150   7.218 -0.5912 -0.7185 -0.0277
 3471TIP3    H131972   2.669   3.232   7.208 -0.8652 -0.5976 -0.4167
 3471TIP3    H231973   2.528   3.177   7.215 -0.6931 -1.1156 -0.9072
 3472TIP3   OH231974   5.385   6.502   3.052 -0.3625 -0.1807 -0.5379
 3472TIP3    H131975   5.330   6.451   2.992 -2.1514  1.9448 -0.8433
 3472TIP3    H231976   5.368   6.593   3.028  2.0757  0.6160  0.5131
 3473TIP3   OH231977   5.749   2.759   0.692 -0.6176  0.2373 -0.3375
 3473TIP3    H131978   5.843   2.776   0.694 -0.4810 -0.3934 -1.0488
 3473TIP3    H231979   5.711   2.828   0.746  0.2780  0.3207  0.2087
 3474TIP3   OH231980   3.168   1.930   0.940 -0.1779  0.7427 -0.2151
 3474TIP3    H131981   3.220   1.983   0.880 -0.1010  0.0325 -0.7846
 3474TIP3    H231982   3.227   1.858   0.965 -0.3305  0.8337  0.4248
 3475TIP3   OH231983   2.131   1.703   0.450 -0.0276 -0.4513  0.2101
 3475TIP3    H131984   2.126   1.655   0.533  1.3588  1.5273  1.5407
 3475TIP3    H231985   2.061   1.767   0.455  0.5421  0.1871  0.2519
 3476TIP3   OH231986   0.260   0.525   0.034 -0.0306 -0.4147 -0.0746
 3476TIP3    H131987   0.183   0.572   0.003  2.4785  3.2451 -1.4043
 3476TIP3    H231988   0.302   0.492  -0.046  0.7598 -0.6474  0.4213
 3477TIP3   OH231989   5.946   4.992   1.084  0.0726 -0.1231  0.4493
 3477TIP3    H131990   5.885   5.064   1.098 -1.8465 -1.4516 -0.4744
 3477TIP3    H231991   6.030   5.033   1.067 -1.3874  2.0451 -2.3186
 3478TIP3   OH231992   5.803   3.235   1.108 -0.1638  0.7656  0.3012
 3478TIP3    H131993   5.770   3.315   1.067 -1.4429  1.3230  2.2751
 3478TIP3    H231994   5.724   3.187   1.134  0.5938 -0.4883  0.3623
 3479TIP3   OH231995   6.508   3.697   2.373  0.1806  0.0441 -0.0930
 3479TIP3    H131996   6.581   3.655   2.327  0.3197  0.0089  0.1598
 3479TIP3    H231997   6.522   3.790   2.360 -2.4718  0.1412 -4.4621
 3480TIP3   OH231998   3.155   1.799   2.784  0.8646 -0.1219  0.0205
 3480TIP3    H131999   3.227   1.859   2.768  0.2632  0.6622  0.2315
 3480TIP3    H232000   3.160   1.736   2.712  2.6097 -0.9371  0.7714
 3481TIP3   OH232001   3.602   1.260   8.539  0.2746  0.1434 -0.0738
 3481TIP3    H132002   3.646   1.324   8.596 -0.0982  0.8445 -0.5547
 3481TIP3    H232003   3.510   1.285   8.542  0.2437  0.1591 -0.9406
 3482TIP3   OH232004   6.763   5.746   0.838 -0.4645 -0.1026 -0.0249
 3482TIP3    H132005   6.707   5.668   0.836  1.1227 -1.3103  0.6449
 3482TIP3    H232006   6.827   5.731   0.768 -0.2950  0.7229 -0.0550
 3483TIP3   OH232007   5.249   5.631   0.539 -0.0446 -0.3307  0.4404
 3483TIP3    H132008   5.288   5.676   0.614 -0.9667  0.4256  0.4852
 3483TIP3    H232009   5.309   5.559   0.521  0.6769  0.0242  1.3209
 3484TIP3   OH232010   3.712   0.820   8.729  0.1983  0.0497  0.5338
 3484TIP3    H132011   3.662   0.895   8.762  0.0888 -0.2100  0.9618
 3484TIP3    H232012   3.804   0.844   8.743  0.3277  1.3372 -1.9515
 3485TIP3   OH232013   0.523   3.127   2.502  0.0049  0.2983  0.2159
 3485TIP3    H132014   0.592   3.097   2.561  0.5581  0.9385 -0.0875
 3485TIP3    H232015   0.446   3.136   2.558  0.5035  0.8203  0.8405
 3486TIP3   OH232016   2.702   1.022   2.124  0.0447  0.1659 -0.3848
 3486TIP3    H132017   2.719   0.967   2.201 -2.2286 -0.3358 -0.1681
 3486TIP3    H232018   2.777   1.006   2.066  0.4363 -1.6159  0.5400
 3487TIP3   OH232019   3.436   6.031   0.102  0.0569  0.1371 -0.2942
 3487TIP3    H132020   3.406   6.104   0.048 -2.6871 -1.2904 -0.8430
 3487TIP3    H232021   3.522   6.009   0.066  0.3703  2.1882 -0.9664
 3488TIP3   OH232022   0.796   5.174   1.004  0.1209  0.5618 -0.2613
 3488TIP3    H132023   0.879   5.172   1.050  0.8342  1.1897 -1.4735
 3488TIP3    H232024   0.752   5.093   1.030  0.8973  0.4574  0.7649
 3489TIP3   OH232025   3.529   3.015   7.911 -0.6064 -0.1516 -0.0605
 3489TIP3    H132026   3.556   2.924   7.919 -0.4569  0.0505  2.5269
 3489TIP3    H232027   3.440   3.011   7.877 -0.6039 -1.2717  0.0352
 3490TIP3   OH232028   5.245   3.744   7.838 -0.0600 -0.0345  0.0887
 3490TIP3    H132029   5.332   3.741   7.799  0.5674  1.5293  1.2622
 3490TIP3    H232030   5.192   3.792   7.774 -0.3836 -1.8490 -1.0960
 3491TIP3   OH232031   5.696   5.197   2.485  0.0291  0.1098  0.2572
 3491TIP3    H132032   5.656   5.264   2.539  1.0518 -0.1951  1.4416
 3491TIP3    H232033   5.744   5.141   2.546  0.5557 -0.7335 -0.8682
 3492TIP3   OH232034   0.664   5.251   1.441  0.0545  0.0906  0.2122
 3492TIP3    H132035   0.706   5.269   1.525 -0.0512 -1.1565  0.5614
 3492TIP3    H232036   0.589   5.310   1.438  0.6357  0.8633  0.5242
 3493TIP3   OH232037   1.518   1.146   7.285  0.1781  0.3664  0.0371
 3493TIP3    H132038   1.467   1.067   7.269  1.0846 -0.1876 -0.1661
 3493TIP3    H232039   1.462   1.199   7.342  0.2409 -1.1427  1.5739
 3494TIP3   OH232040   1.369   0.984   1.427  0.0866  0.0618  0.2665
 3494TIP3    H132041   1.435   0.916   1.443  1.5127  0.6063 -2.6046
 3494TIP3    H232042   1.306   0.943   1.367  0.8991  1.1626 -1.3987
 3495TIP3   OH232043   5.435   5.066   1.766 -0.5707 -0.0565  0.6052
 3495TIP3    H132044   5.352   5.063   1.813 -0.5073  0.1174  0.7320
 3495TIP3    H232045   5.493   5.114   1.824 -0.2273 -0.6508  0.7552
 3496TIP3   OH232046   6.578   4.742   1.964  0.7367 -0.0505  0.4615
 3496TIP3    H132047   6.569   4.836   1.979  1.3929  0.3140 -1.1194
 3496TIP3    H232048   6.498   4.718   1.917  1.3893  0.1582 -0.8204
 3497TIP3   OH232049   3.862   6.570   8.039 -0.5479  0.4753 -0.2165
 3497TIP3    H132050   3.840   6.556   7.947 -1.5006  0.9504 -0.0760
 3497TIP3    H232051   3.924   6.643   8.038 -2.2713  2.0147 -0.3637
 3498TIP3   OH232052   4.434   4.314   2.075 -0.0619  0.0316  0.2419
 3498TIP3    H132053   4.450   4.393   2.023  1.5734 -0.1342  0.4447
 3498TIP3    H232054   4.466   4.242   2.020  1.0841 -0.2074  1.1811
 3499TIP3   OH232055   0.925   3.817   2.458 -0.3050 -0.3612  0.1338
 3499TIP3    H132056   0.862   3.823   2.385 -0.8459 -2.1640  0.3930
 3499TIP3    H232057   0.958   3.906   2.468 -0.6959  0.0812 -1.8874
 3500TIP3   OH232058   4.582   4.097   1.483 -0.0288 -0.2164  0.6124
 3500TIP3    H132059   4.541   4.140   1.558  1.4273  0.5840  0.9817
 3500TIP3    H232060   4.631   4.166   1.438 -0.8093 -0.6877 -1.0680
 3501TIP3   OH232061   1.285   5.394   8.342 -0.1352 -0.4752 -0.0775
 3501TIP3    H132062   1.236   5.446   8.278 -0.1288  0.7189  0.8454
 3501TIP3    H232063   1.376   5.400   8.313 -0.3838 -1.9913 -1.3125
 3502TIP3   OH232064   1.315   3.660   7.073 -0.1554 -0.3567 -0.9448
 3502TIP3    H132065   1.237   3.714   7.071 -0.1031 -0.2984 -1.6162
 3502TIP3    H232066   1.369   3.693   7.002  1.1499  0.5728  0.4179
 3503TIP3   OH232067   2.524   3.464   8.446  0.0965 -0.6296 -0.0480
 3503TIP3    H132068   2.520   3.529   8.516 -0.0700 -2.4827  1.7452
 3503TIP3    H232069   2.520   3.380   8.491 -2.1085 -1.9083 -2.4154
 3504TIP3   OH232070   0.043   2.513   7.631  0.3625  0.2069 -0.6737
 3504TIP3    H132071   0.056   2.577   7.700  1.7820  0.3487 -1.0334
 3504TIP3    H232072   0.011   2.564   7.556 -1.9796 -0.0684  0.0800
 3505TIP3   OH232073   4.342   6.195   3.396  0.4817  0.2549 -0.0611
 3505TIP3    H132074   4.400   6.119   3.402  0.6779  0.4993  1.4582
 3505TIP3    H232075   4.379   6.258   3.458 -1.4536  0.3784  1.0482
 3506TIP3   OH232076   2.613   4.531   1.650  0.2335 -0.0805  0.1620
 3506TIP3    H132077   2.654   4.497   1.571 -1.3783  0.2112 -0.8527
 3506TIP3    H232078   2.675   4.596   1.683  1.5909 -1.2388 -0.0141
 3507TIP3   OH232079   1.014   6.084   8.247  0.2074 -0.3488  0.2422
 3507TIP3    H132080   1.006   5.989   8.256 -0.3909 -0.1509  2.2324
 3507TIP3    H232081   1.057   6.112   8.328 -0.3827  1.1690  0.0526
 3508TIP3   OH232082   2.314   0.523   2.792 -0.1821 -0.5188  0.0535
 3508TIP3    H132083   2.390   0.467   2.809 -0.9994 -2.2766 -1.7639
 3508TIP3    H232084   2.252   0.502   2.861  0.2669 -0.4216  0.4886
 3509TIP3   OH232085   5.878   6.691   8.567 -0.0772 -1.0535 -0.0110
 3509TIP3    H132086   5.960   6.671   8.520 -0.0018 -0.5104 -0.1160
 3509TIP3    H232087   5.853   6.608   8.607  0.5067 -1.2365 -0.0111
 3510TIP3   OH232088   6.266   5.168   8.016 -0.0232  0.0963 -0.1004
 3510TIP3    H132089   6.285   5.185   8.108 -1.8817  2.5163 -0.0667
 3510TIP3    H232090   6.191   5.110   8.017  0.3949 -0.4485 -0.1096
 3511TIP3   OH232091   3.298   5.361   8.718  0.2267 -0.1273  0.2418
 3511TIP3    H132092   3.310   5.308   8.639 -0.1502 -0.3537  0.3326
 3511TIP3    H232093   3.263   5.444   8.686  0.2451 -0.1526  0.1547
 3512TIP3   OH232094   4.912   3.285   3.189  0.0407 -0.3792  0.2599
 3512TIP3    H132095   4.847   3.216   3.175  0.5920 -0.9409  0.4330
 3512TIP3    H232096   4.887   3.324   3.272  0.4087 -1.1507  0.7425
 3513TIP3   OH232097   3.013   0.993   7.865 -0.2926  0.0656 -0.4296
 3513TIP3    H132098   2.967   1.074   7.844  0.8631  0.8627  0.0372
 3513TIP3    H232099   3.083   0.988   7.799  1.8301  1.3081  1.5999
 3514TIP3   OH232100   0.430   3.542   0.099 -0.1061 -0.0828  0.4083
 3514TIP3    H132101   0.353   3.491   0.074  0.7429 -0.6035 -1.2456
 3514TIP3    H232102   0.446   3.599   0.025  1.0476  0.0919  0.7787
 3515TIP3   OH232103   3.099   0.441   0.234 -0.1282 -0.2223 -0.8932
 3515TIP3    H132104   3.038   0.421   0.163 -2.3027 -0.2240  0.8734
 3515TIP3    H232105   3.087   0.535   0.251  0.5277 -0.1725 -0.6834
 3516TIP3   OH232106   2.498   3.128   3.221  0.5378  0.0701  0.8108
 3516TIP3    H132107   2.486   3.034   3.234  0.6176 -0.2201 -1.0089
 3516TIP3    H232108   2.580   3.135   3.172  0.1059  1.0335  0.2151
 3517TIP3   OH232109   2.101   5.224   1.877 -0.1757  0.3814  0.4668
 3517TIP3    H132110   2.193   5.200   1.861 -0.7286 -1.5617 -0.0302
 3517TIP3    H232111   2.080   5.182   1.960 -1.3969 -1.7031 -0.8043
 3518TIP3   OH232112   6.000   3.276   7.064 -0.0483 -0.2833 -0.0065
 3518TIP3    H132113   6.021   3.238   7.149  1.4333  0.4985 -0.0039
 3518TIP3    H232114   6.003   3.202   7.003 -3.4602 -1.3527  0.8662
 3519TIP3   OH232115   2.291   3.567   8.356  0.5099 -0.4960 -0.2523
 3519TIP3    H132116   2.275   3.528   8.442  2.1499 -0.4857  0.1020
 3519TIP3    H232117   2.383   3.548   8.338  0.3100 -0.1508 -1.8392
 3520TIP3   OH232118   1.654   6.106   8.715 -0.8698  0.3542 -0.2730
 3520TIP3    H132119   1.634   6.187   8.667 -2.1119 -0.8579 -1.8957
 3520TIP3    H232120   1.574   6.088   8.765 -0.4840  0.2679  0.3194
 3521TIP3   OH232121   2.068   0.714   1.549  0.2586 -0.2270  0.0209
 3521TIP3    H132122   2.079   0.624   1.578 -1.5319 -1.5651 -2.9877
 3521TIP3    H232123   2.015   0.755   1.617 -0.5398 -2.0293  0.5350
 3522TIP3   OH232124   0.192   1.778   7.957 -0.1479 -0.3178 -0.0786
 3522TIP3    H132125   0.208   1.710   7.892 -0.9833 -0.7407  0.1375
 3522TIP3    H232126   0.103   1.809   7.938 -0.5071 -0.6373  1.0152
 3523TIP3   OH232127   5.041   6.560   8.478  0.1846 -0.3307  0.0576
 3523TIP3    H132128   5.085   6.581   8.560  1.1086 -0.1284 -0.4798
 3523TIP3    H232129   4.967   6.505   8.504  0.3224 -0.0699  1.0422
 3524TIP3   OH232130   2.271   0.111   8.724 -0.8291 -0.2149 -0.3664
 3524TIP3    H132131   2.349   0.079   8.769 -0.1144  2.4472  0.4324
 3524TIP3    H232132   2.198   0.073   8.773 -0.0455  0.0622  1.0643
 3525TIP3   OH232133   6.390   1.570   1.393  0.4209 -0.5990 -0.6930
 3525TIP3    H132134   6.475   1.588   1.352  0.4406 -2.7866 -1.7426
 3525TIP3    H232135   6.343   1.516   1.329 -2.0115  0.9624 -0.3549
 3526TIP3   OH232136   4.542   0.440   1.150 -0.0477  0.2045  0.3283
 3526TIP3    H132137   4.510   0.521   1.109  1.7660  1.1340  0.6391
 3526TIP3    H232138   4.533   0.456   1.244  0.9644  0.3646  0.4128
 3527TIP3   OH232139   3.578   5.774   0.504 -0.5393  0.4016  0.5809
 3527TIP3    H132140   3.495   5.739   0.538 -0.7436  0.0887 -0.2145
 3527TIP3    H232141   3.562   5.786   0.410 -0.3601  2.3327  0.7622
 3528TIP3   OH232142   2.836   4.833   3.285 -0.0018  0.2121 -0.1645
 3528TIP3    H132143   2.742   4.850   3.280 -0.0280  0.4181  0.7862
 3528TIP3    H232144   2.874   4.889   3.217 -0.2778  2.6930  1.5721
 3529TIP3   OH232145   5.406   5.890   1.913 -0.2679  0.1024  0.5870
 3529TIP3    H132146   5.384   5.830   1.842  2.7591 -1.9583  1.1795
 3529TIP3    H232147   5.424   5.974   1.869 -0.5689 -0.5149 -0.7698
 3530TIP3   OH232148   2.339   2.667   1.473 -0.2885  0.0203 -0.2503
 3530TIP3    H132149   2.286   2.728   1.423 -2.2706 -1.1596  0.2900
 3530TIP3    H232150   2.346   2.590   1.417  0.0986 -0.1756  0.0631
 3531TIP3   OH232151   1.119   2.687   2.392  0.1546  0.0027 -0.4731
 3531TIP3    H132152   1.198   2.684   2.446  1.0731 -1.2412 -1.8267
 3531TIP3    H232153   1.123   2.773   2.350  0.2776  0.3344  0.2055
 3532TIP3   OH232154   1.664   3.916   1.605  0.1788 -0.6876 -0.2662
 3532TIP3    H132155   1.708   3.972   1.542 -1.8432  0.5174 -0.6913
 3532TIP3    H232156   1.626   3.846   1.553  2.6433 -2.5634  0.2551
 3533TIP3   OH232157   4.194   3.367   8.161 -0.2815 -0.6758  0.0041
 3533TIP3    H132158   4.184   3.430   8.090 -0.6459  0.1151  0.7235
 3533TIP3    H232159   4.157   3.412   8.237  0.9973 -1.0893  0.9150
 3534TIP3   OH232160   5.239   1.397   1.953 -0.0829  0.3548 -0.0440
 3534TIP3    H132161   5.329   1.430   1.959  0.2343 -0.6741  1.7457
 3534TIP3    H232162   5.196   1.432   2.031 -0.9145 -0.0700 -0.2991
 3535TIP3   OH232163   5.641   3.621   8.374 -0.2029  0.0665  0.1266
 3535TIP3    H132164   5.724   3.575   8.373  0.5629  1.3870 -0.3435
 3535TIP3    H232165   5.654   3.691   8.439 -0.3241  1.3003 -1.1153
 3536TIP3   OH232166   4.770   4.155   0.607  0.5790 -0.3017 -0.0228
 3536TIP3    H132167   4.782   4.158   0.702 -0.3923  0.4518  0.0938
 3536TIP3    H232168   4.812   4.235   0.575  0.0911 -0.0816 -0.1206
 3537TIP3   OH232169   5.958   3.551   2.072  0.5407 -0.0470 -0.5189
 3537TIP3    H132170   6.045   3.528   2.106  0.8324 -0.2561 -1.3926
 3537TIP3    H232171   5.976   3.596   1.989 -0.0276  2.6132  0.6691
 3538TIP3   OH232172   0.090   2.369   2.266  0.8185  0.0053 -0.1100
 3538TIP3    H132173   0.117   2.309   2.335 -0.0941 -0.7590 -0.3881
 3538TIP3    H232174   0.080   2.313   2.189 -0.8067  0.3497 -0.1885
 3539TIP3   OH232175   1.961   6.490   8.908  0.3447 -0.1430  0.3464
 3539TIP3    H132176   1.970   6.396   8.923  0.4695 -0.1321  0.3458
 3539TIP3    H232177   1.867   6.505   8.899  0.2875 -0.1925  0.8507
 3540TIP3   OH232178   3.083   1.030   1.985  0.2726 -0.6952  0.3194
 3540TIP3    H132179   3.110   1.056   2.073 -0.7811 -0.4153  0.5700
 3540TIP3    H232180   3.159   0.983   1.950  1.9416  1.8831  0.1896
 3541TIP3   OH232181   2.893   4.616   8.178  0.1933 -0.2078 -0.3217
 3541TIP3    H132182   2.867   4.535   8.133 -0.6588 -0.1696  0.0889
 3541TIP3    H232183   2.983   4.599   8.206 -0.6228 -1.8132  1.5155
 3542TIP3   OH232184   6.168   2.978   8.021  0.2062 -0.5959  0.1211
 3542TIP3    H132185   6.105   2.947   7.956  0.2555 -0.8211  0.1781
 3542TIP3    H232186   6.163   3.073   8.016 -0.2979 -0.6085  0.2770
 3543TIP3   OH232187   5.886   0.811   1.244  0.5366  0.1932 -0.3920
 3543TIP3    H132188   5.922   0.724   1.261  2.1905  0.7737 -0.7262
 3543TIP3    H232189   5.838   0.833   1.324 -0.8186 -1.4161 -0.6966
 3544TIP3   OH232190   1.247   0.785   8.864 -0.0858 -0.0088  0.4933
 3544TIP3    H132191   1.153   0.776   8.877  0.1255 -1.7749  0.9470
 3544TIP3    H232192   1.276   0.699   8.836  1.2169  0.8511 -1.0009
 3545TIP3   OH232193   5.192   4.706   0.957 -0.0160  0.2657 -0.7318
 3545TIP3    H132194   5.220   4.621   0.992 -2.2752 -1.6612 -3.1989
 3545TIP3    H232195   5.107   4.721   0.997  0.3427  1.4045 -0.3575
 3546TIP3   OH232196   6.057   1.481   8.579  0.3368  0.1592 -0.0986
 3546TIP3    H132197   6.086   1.554   8.525 -1.6554  0.5640 -0.7002
 3546TIP3    H232198   6.081   1.403   8.530  2.0721  0.3631  0.3361
 3547TIP3   OH232199   4.672   2.764   1.372  0.3689 -0.0732 -0.3320
 3547TIP3    H132200   4.719   2.835   1.416 -1.6365  0.1862  1.5752
 3547TIP3    H232201   4.625   2.808   1.301 -0.9272  0.5689  0.8865
 3548TIP3   OH232202   3.885   4.292   2.252  0.2144  0.2908 -0.5815
 3548TIP3    H132203   3.925   4.369   2.212 -1.4650  0.7223 -1.5191
 3548TIP3    H232204   3.840   4.325   2.329  1.1461 -0.0997  0.1501
 3549TIP3   OH232205   2.900   6.272   0.490  0.1620  0.3336  0.4696
 3549TIP3    H132206   2.864   6.336   0.429 -0.8229 -0.1719  0.5085
 3549TIP3    H232207   2.989   6.303   0.508  0.1409  0.9760 -0.5109
 3550TIP3   OH232208   0.272   3.731   8.559  0.5893 -0.3573 -0.4457
 3550TIP3    H132209   0.222   3.810   8.537  0.4184  0.7528  3.2675
 3550TIP3    H232210   0.360   3.763   8.581  0.8203 -1.3149  0.1196
 3551TIP3   OH232211   4.556   5.356   0.172 -0.2642 -0.2278  0.1088
 3551TIP3    H132212   4.474   5.404   0.179 -1.1745 -1.4715 -1.1462
 3551TIP3    H232213   4.548   5.309   0.088  2.5175  1.0361 -0.9871
 3552TIP3   OH232214   3.953   2.693   7.614  0.0146 -0.3545  0.2628
 3552TIP3    H132215   3.962   2.788   7.615 -0.2418 -0.3283  1.7311
 3552TIP3    H232216   3.860   2.677   7.601  0.1047 -0.4327 -0.3610
 3553TIP3   OH232217   3.753   3.844   1.586 -0.0967  0.0636  0.1938
 3553TIP3    H132218   3.826   3.809   1.638  0.3605  0.4497 -0.1724
 3553TIP3    H232219   3.795   3.904   1.524 -0.9178  2.2203  1.5875
 3554TIP3   OH232220   4.032   3.797   8.328 -0.0563 -0.0619 -0.2975
 3554TIP3    H132221   4.098   3.854   8.288 -0.3048  0.2820 -0.2171
 3554TIP3    H232222   3.951   3.818   8.282 -0.7989  1.7943  1.6851
 3555TIP3   OH232223   6.259   5.522   7.693  0.5416 -0.1764  0.4929
 3555TIP3    H132224   6.300   5.606   7.716 -1.4598  1.3975 -1.1561
 3555TIP3    H232225   6.225   5.537   7.604 -1.9974 -1.8900  1.0722
 3556TIP3   OH232226   2.043   2.698   8.219 -0.7134  0.1769  0.4140
 3556TIP3    H132227   2.092   2.766   8.265  1.5035 -0.4863 -0.8113
 3556TIP3    H232228   1.952   2.726   8.225 -0.1280  1.9724  2.0004
 3557TIP3   OH232229   2.064   1.680   2.155 -0.0906 -0.0733 -0.0275
 3557TIP3    H132230   2.084   1.596   2.113 -0.8061  0.1682 -0.8939
 3557TIP3    H232231   2.139   1.735   2.136 -0.4107  0.0383 -1.0576
 3558TIP3   OH232232   4.650   3.840   8.631  0.0722  0.3968  0.3053
 3558TIP3    H132233   4.663   3.935   8.629  0.2783  0.3623 -0.3373
 3558TIP3    H232234   4.571   3.825   8.579 -0.3601  0.2769  0.9991
 3559TIP3   OH232235   3.349   0.092   2.391 -0.4987 -0.1045 -0.2811
 3559TIP3    H132236   3.384   0.129   2.310 -1.5083  0.0067 -0.6893
 3559TIP3    H232237   3.348  -0.002   2.375 -2.9379  0.0136 -1.4216
 3560TIP3   OH232238   6.750   0.911   2.643 -0.1603 -0.1804 -0.0249
 3560TIP3    H132239   6.722   0.837   2.589 -0.1885  0.2136 -0.5680
 3560TIP3    H232240   6.766   0.981   2.579 -0.2656  0.3179  0.4950
 3561TIP3   OH232241   5.144   0.755   8.044 -0.1005 -0.4358 -0.2480
 3561TIP3    H132242   5.183   0.712   8.120  2.3092 -0.9835 -1.6562
 3561TIP3    H232243   5.207   0.824   8.021 -2.8770  2.6955  0.7422
 3562TIP3   OH232244   6.113   2.197   0.800  0.3865  0.1064 -0.1486
 3562TIP3    H132245   6.116   2.285   0.764 -0.8833  1.4787  2.7635
 3562TIP3    H232246   6.132   2.208   0.893  1.3905 -2.8838  0.1045
 3563TIP3   OH232247   4.508   6.546   8.537 -0.1364  0.1197 -0.0211
 3563TIP3    H132248   4.429   6.519   8.583 -0.1839 -0.1416 -0.2498
 3563TIP3    H232249   4.580   6.508   8.588 -0.1722  0.1232  0.0321
 3564TIP3   OH232250   1.556   4.230   2.237  0.2144  0.8098  0.8781
 3564TIP3    H132251   1.530   4.139   2.221 -0.9760  1.1814  0.5655
 3564TIP3    H232252   1.531   4.247   2.327  1.5919  0.4697  1.3486
 3565TIP3   OH232253   2.806   3.648   1.411  0.1266  0.1392 -0.0428
 3565TIP3    H132254   2.773   3.570   1.366  0.7318 -0.0577 -0.1581
 3565TIP3    H232255   2.901   3.644   1.399  0.2117  0.5944  0.4356
 3566TIP3   OH232256   3.127   4.426   0.662  0.3421 -0.0678  0.2033
 3566TIP3    H132257   3.038   4.404   0.634  0.1925 -0.4585  0.9622
 3566TIP3    H232258   3.173   4.449   0.581 -0.8260  1.5580 -0.0507
 3567TIP3   OH232259   3.175   6.406   0.523  0.0135  0.0437 -0.4356
 3567TIP3    H132260   3.175   6.448   0.609 -0.4386 -1.1606  0.1806
 3567TIP3    H232261   3.249   6.445   0.477  0.6123  0.2971  0.7029
 3568TIP3   OH232262   3.144   3.142   3.080 -0.4482 -0.0099  0.0421
 3568TIP3    H132263   3.111   3.192   3.006 -2.3309  0.0965  0.8923
 3568TIP3    H232264   3.124   3.195   3.157  0.9569 -0.3678  0.6959
 3569TIP3   OH232265   1.233   3.757   7.698  0.7310 -0.3668  0.3851
 3569TIP3    H132266   1.239   3.763   7.603 -0.2714 -1.3909  0.2527
 3569TIP3    H232267   1.273   3.673   7.720 -2.6188 -2.1010  0.4559
 3570TIP3   OH232268   1.871   5.983   0.495 -0.0517 -0.7690  0.1669
 3570TIP3    H132269   1.887   5.904   0.444  0.0831 -0.8544  0.3411
 3570TIP3    H232270   1.810   6.034   0.442  1.3341 -0.1010 -0.8302
 3571TIP3   OH232271   4.035   4.443   2.078  0.1996  0.7243  0.4004
 3571TIP3    H132272   4.089   4.364   2.084  0.8056  1.0183 -0.9288
 3571TIP3    H232273   3.984   4.431   1.998  0.2095  1.6319  0.2533
 3572TIP3   OH232274   6.437   1.921   0.897 -0.0747  0.3404 -0.3215
 3572TIP3    H132275   6.511   1.980   0.883  0.7069 -0.0533  1.8151
 3572TIP3    H232276   6.360   1.974   0.876  0.6865  1.5365 -0.2177
 3573TIP3   OH232277   5.029   5.238   2.696 -0.0926 -0.1587 -0.0481
 3573TIP3    H132278   4.976   5.163   2.668  1.7118 -0.4681 -3.1562
 3573TIP3    H232279   5.118   5.216   2.667  0.6870  2.7119 -0.1315
 3574TIP3   OH232280   2.392   2.325   2.038  0.0947  0.0862  0.2717
 3574TIP3    H132281   2.381   2.396   2.102  0.1805 -2.0097  2.7857
 3574TIP3    H232282   2.329   2.258   2.066  2.0372 -2.0384 -0.1790
 3575TIP3   OH232283   0.397   5.275   1.031 -0.4833  0.2122  0.1474
 3575TIP3    H132284   0.427   5.238   1.114 -1.0934  1.7647  1.0936
 3575TIP3    H232285   0.363   5.200   0.982  0.5656 -0.8444  0.9693
 3576TIP3   OH232286   1.388   4.822   8.120  0.4302  0.0162  0.2281
 3576TIP3    H132287   1.294   4.806   8.110  0.6023 -0.8900  0.0577
 3576TIP3    H232288   1.402   4.823   8.215  0.1847  0.5879  0.2655
 3577TIP3   OH232289   6.628   2.009   1.181  0.2794  0.2604  0.5633
 3577TIP3    H132290   6.608   2.096   1.145 -0.0032  0.0415  0.1826
 3577TIP3    H232291   6.544   1.964   1.183  0.6812 -0.6312 -0.9540
 3578TIP3   OH232292   6.723   2.851   7.142 -0.4617 -0.3220 -0.4170
 3578TIP3    H132293   6.732   2.945   7.123  1.9091 -0.9165 -2.7352
 3578TIP3    H232294   6.790   2.834   7.208 -1.2976 -0.3299  0.4566
 3579TIP3   OH232295   6.516   3.806   7.986  0.0601 -0.3476 -0.4921
 3579TIP3    H132296   6.552   3.818   8.074 -0.3446  0.5249 -0.4315
 3579TIP3    H232297   6.421   3.809   7.999 -0.0024 -0.3601 -0.9424
 3580TIP3   OH232298   1.925   6.657   1.704  0.1892 -0.0928  0.1656
 3580TIP3    H132299   1.902   6.620   1.789  1.5613 -0.0032  0.6067
 3580TIP3    H232300   1.943   6.581   1.649 -0.6372 -0.1499 -0.0275
 3581TIP3   OH232301   5.050   2.326   1.402 -0.2391 -0.5043 -0.0432
 3581TIP3    H132302   5.019   2.242   1.435  0.2512 -1.5025 -1.9917
 3581TIP3    H232303   4.977   2.386   1.416 -0.5346 -1.1731  1.5297
 3582TIP3   OH232304   0.245   6.518   1.220  0.4424  0.1290 -0.2427
 3582TIP3    H132305   0.207   6.605   1.219 -0.7089 -0.3428  0.4084
 3582TIP3    H232306   0.316   6.521   1.156  0.3852  1.5167 -0.2553
 3583TIP3   OH232307   5.259   0.607   0.248  0.2468  0.1214 -0.5653
 3583TIP3    H132308   5.303   0.692   0.253 -0.3700  0.4609 -0.7950
 3583TIP3    H232309   5.257   0.576   0.338 -0.1384  0.6721 -0.3772
 3584TIP3   OH232310   4.520   0.913   1.585 -0.0025  0.3970  0.1581
 3584TIP3    H132311   4.515   1.002   1.550 -0.7750  0.5684  0.6658
 3584TIP3    H232312   4.579   0.920   1.660 -0.3837  0.5742  0.4461
 3585TIP3   OH232313   0.650   2.928   0.982  0.0310  0.3360 -0.0838
 3585TIP3    H132314   0.695   2.905   1.063 -0.9372  1.6693  0.8864
 3585TIP3    H232315   0.624   3.019   0.995  0.2474  0.7260 -2.0987
 3586TIP3   OH232316   3.630   1.569   2.377  0.6856 -0.0162 -0.5107
 3586TIP3    H132317   3.661   1.600   2.292 -0.4421 -1.2147 -1.4060
 3586TIP3    H232318   3.671   1.483   2.387  1.6659  0.5471  0.7009
 3587TIP3   OH232319   5.096   3.468   0.451 -0.1557  0.8815  0.5303
 3587TIP3    H132320   5.122   3.389   0.498 -2.4418  0.2688  0.8960
 3587TIP3    H232321   5.120   3.450   0.360 -0.6033 -0.2482  0.6133
 3588TIP3   OH232322   5.536   6.347   0.003 -0.0112  0.3791  0.0711
 3588TIP3    H132323   5.595   6.274   0.022  2.2481  1.5733 -1.7950
 3588TIP3    H232324   5.570   6.419   0.055 -0.1287  0.9493 -0.6292
 3589TIP3   OH232325   2.903   5.092   0.520  0.1928  0.0505 -0.1988
 3589TIP3    H132326   2.845   5.161   0.489 -0.1593  0.2406  0.8527
 3589TIP3    H232327   2.989   5.114   0.483  0.3358  1.6939  1.0543
 3590TIP3   OH232328   1.264   5.308   3.140 -0.6926  0.4419 -0.3924
 3590TIP3    H132329   1.246   5.389   3.092  0.5978  0.9210 -0.1164
 3590TIP3    H232330   1.231   5.326   3.229 -0.3104  0.7237 -0.3015
 3591TIP3   OH232331   4.781   5.476   2.324  0.1449 -0.0743 -0.1765
 3591TIP3    H132332   4.861   5.498   2.372 -0.9061  0.6576  1.3323
 3591TIP3    H232333   4.749   5.560   2.291  1.3314 -0.6478 -3.0978
 3592TIP3   OH232334   1.367   6.134   0.714  0.0453 -0.5974 -0.0532
 3592TIP3    H132335   1.301   6.071   0.744  0.5151 -0.6044  0.9782
 3592TIP3    H232336   1.319   6.190   0.652 -0.1965 -2.4219 -1.6015
 3593TIP3   OH232337   1.763   1.470   7.199 -0.1315  0.2180  0.3023
 3593TIP3    H132338   1.687   1.505   7.244  1.0840  0.3785  2.3862
 3593TIP3    H232339   1.751   1.375   7.200 -1.1090  0.2960 -1.0030
 3594TIP3   OH232340   3.126   1.280   8.547 -0.0404  0.3687  0.0243
 3594TIP3    H132341   3.208   1.236   8.570 -0.3953 -0.3362 -0.0414
 3594TIP3    H232342   3.088   1.227   8.478 -0.7521  0.4674  0.3286
 3595TIP3   OH232343   4.640   0.625   7.544 -0.3142 -0.0803  0.1011
 3595TIP3    H132344   4.627   0.720   7.548  1.1377  0.1497  0.0680
 3595TIP3    H232345   4.699   0.606   7.616 -2.7728 -1.4221  1.8967
 3596TIP3   OH232346   0.208   6.234   0.767  0.8002  0.3039  0.1832
 3596TIP3    H132347   0.238   6.263   0.681 -2.0800  2.0159 -0.3707
 3596TIP3    H232348   0.156   6.156   0.749  3.0107 -1.4462  0.8941
 3597TIP3   OH232349   2.099   5.116   1.556 -0.0572 -0.0245  0.5039
 3597TIP3    H132350   2.090   5.026   1.588  1.0114 -0.1215  0.5755
 3597TIP3    H232351   2.026   5.163   1.596 -1.5395 -1.1641 -0.7253
 3598TIP3   OH232352   3.252   2.019   7.931 -0.3509  0.1351 -0.0909
 3598TIP3    H132353   3.181   1.986   7.985 -0.5573 -0.1073 -0.5112
 3598TIP3    H232354   3.230   1.993   7.842 -0.2759  0.9733 -0.3696
 3599TIP3   OH232355   5.414   1.656   2.739 -0.0607 -0.0988 -0.0278
 3599TIP3    H132356   5.504   1.623   2.733 -0.0899 -0.0983 -0.4624
 3599TIP3    H232357   5.375   1.605   2.810  0.3573  0.0740  0.3323
 3600TIP3   OH232358   4.935   1.165   8.332  0.4178  0.6415  0.3447
 3600TIP3    H132359   4.967   1.156   8.422 -1.0338  1.3785  0.9690
 3600TIP3    H232360   4.966   1.086   8.288  1.5457  0.4812  1.3590
 3601TIP3   OH232361   1.250   6.170   2.488 -0.2293  0.4876 -0.0864
 3601TIP3    H132362   1.344   6.162   2.472 -0.2226  0.8806 -0.2614
 3601TIP3    H232363   1.212   6.178   2.400 -0.5773 -1.1503 -0.1133
 3602TIP3   OH232364   4.680   6.157   8.451 -0.2022  0.1960  0.9706
 3602TIP3    H132365   4.729   6.078   8.475 -1.4130 -1.5827 -1.8304
 3602TIP3    H232366   4.611   6.163   8.517 -1.3771 -2.4507  0.1245
 3603TIP3   OH232367   6.028   0.729   8.824 -0.8641 -0.1602  0.3098
 3603TIP3    H132368   5.981   0.757   8.745 -1.1327  0.5859  0.7297
 3603TIP3    H232369   6.116   0.765   8.813 -0.7968 -0.3660  0.1790
 3604TIP3   OH232370   1.837   4.512   3.166  0.0812 -0.6780  0.6913
 3604TIP3    H132371   1.820   4.564   3.245 -0.6077 -1.2044  0.9030
 3604TIP3    H232372   1.932   4.501   3.165  0.2412  0.5633  0.6468
 3605TIP3   OH232373   6.564   5.301   8.385 -0.6881  0.6597 -0.6521
 3605TIP3    H132374   6.632   5.330   8.325  0.6502 -0.8112  0.1042
 3605TIP3    H232375   6.578   5.352   8.464 -0.0945 -0.0497 -0.2960
 3606TIP3   OH232376   6.127   2.813   0.882 -0.2610  0.1718  0.0061
 3606TIP3    H132377   6.088   2.786   0.799 -0.3227  2.7550 -0.8916
 3606TIP3    H232378   6.077   2.890   0.908  1.2927  0.8337  1.1997
 3607TIP3   OH232379   3.924   3.224   7.641 -1.0125  0.6854 -0.5947
 3607TIP3    H132380   3.863   3.190   7.706 -1.4044  0.3556 -1.1337
 3607TIP3    H232381   3.959   3.305   7.681  0.0285 -0.3750  0.7633
 3608TIP3   OH232382   0.889   3.186   1.672  0.6813 -0.9062  0.3995
 3608TIP3    H132383   0.927   3.262   1.716  1.4068 -0.2777 -1.2249
 3608TIP3    H232384   0.937   3.111   1.706  1.1680 -0.4528  0.7213
 3609TIP3   OH232385   0.960   6.352   0.775  0.1793 -0.6092 -0.1545
 3609TIP3    H132386   0.946   6.279   0.835  0.0837  0.1672  0.8017
 3609TIP3    H232387   1.054   6.354   0.760  0.0980 -1.4041 -0.8192
 3610TIP3   OH232388   1.310   3.939   2.441 -0.6117 -0.0691 -0.6161
 3610TIP3    H132389   1.372   3.981   2.499  0.2900  1.2995 -2.4719
 3610TIP3    H232390   1.225   3.976   2.465 -0.7959 -1.8018  1.7954
 3611TIP3   OH232391   6.058   4.092   2.073 -0.2454 -0.2021 -0.2086
 3611TIP3    H132392   6.096   4.040   2.003 -0.5597  0.1820 -0.6764
 3611TIP3    H232393   5.964   4.074   2.068 -0.2141 -0.6151  0.4907
 3612TIP3   OH232394   1.866   5.048   0.392 -0.0771  0.9248  0.2084
 3612TIP3    H132395   1.782   5.084   0.365 -1.0854 -1.3715  0.0133
 3612TIP3    H232396   1.918   5.045   0.312 -1.0654 -0.7329 -0.4261
 3613TIP3   OH232397   3.245   0.248   1.530  0.2611  0.1493 -0.3170
 3613TIP3    H132398   3.339   0.236   1.514  0.0056 -0.4728 -1.3908
 3613TIP3    H232399   3.221   0.175   1.587  0.6587  0.9957  0.9946
 3614TIP3   OH232400   1.611   3.340   2.328  0.4856 -0.4192 -0.7265
 3614TIP3    H132401   1.633   3.266   2.272 -0.8089 -0.1389 -1.6472
 3614TIP3    H232402   1.591   3.412   2.268 -0.9149 -0.1035  0.0461
 3615TIP3   OH232403   0.440   6.389   7.646  0.5491 -0.1042  0.0667
 3615TIP3    H132404   0.407   6.365   7.559  1.7756 -0.4306 -0.3242
 3615TIP3    H232405   0.450   6.306   7.691 -0.1963  0.0735  0.5846
 3616TIP3   OH232406   5.148   1.678   0.032  0.0410 -0.4452  0.0669
 3616TIP3    H132407   5.232   1.723   0.039 -1.0014  1.4326  1.5609
 3616TIP3    H232408   5.158   1.601   0.087  0.7293 -0.1203  0.4171
 3617TIP3   OH232409   1.403   0.387   0.572  1.2710  0.7600 -0.1666
 3617TIP3    H132410   1.395   0.302   0.616  1.3320  0.1024 -1.3863
 3617TIP3    H232411   1.329   0.388   0.510  2.0721  0.9839 -1.1378
 3618TIP3   OH232412   1.817   4.555   8.868 -0.6114  0.4187  0.2588
 3618TIP3    H132413   1.874   4.561   8.945  1.6210  0.6190 -1.3290
 3618TIP3    H232414   1.797   4.461   8.861 -1.5404  0.4972  1.5269
 3619TIP3   OH232415   3.883   4.489   7.747  0.0846  0.3254 -0.0649
 3619TIP3    H132416   3.965   4.539   7.741  1.1148 -1.4545 -1.6887
 3619TIP3    H232417   3.909   4.407   7.788 -0.9444 -0.1797 -0.4116
 3620TIP3   OH232418   1.624   0.976   8.289  0.3046 -0.7232 -0.0854
 3620TIP3    H132419   1.667   0.890   8.291  0.5524 -0.6455 -1.1834
 3620TIP3    H232420   1.692   1.037   8.318  0.5790 -0.7465 -0.6497
 3621TIP3   OH232421   1.771   5.735   0.346 -0.4060 -0.1724  0.5817
 3621TIP3    H132422   1.678   5.725   0.368 -1.3059 -0.0466 -2.6596
 3621TIP3    H232423   1.773   5.741   0.250  2.8742  0.8150  0.5715
 3622TIP3   OH232424   5.996   2.058   8.252 -0.2565 -0.0828  0.4884
 3622TIP3    H132425   6.019   2.118   8.323  0.1948  0.7767 -0.3511
 3622TIP3    H232426   5.962   2.115   8.183 -0.1598 -0.8274 -0.1950
 3623TIP3   OH232427   6.439   4.583   2.273  0.2475 -0.6324  0.0368
 3623TIP3    H132428   6.389   4.618   2.346  0.5171  2.5457 -1.1339
 3623TIP3    H232429   6.529   4.612   2.289  0.9873 -2.7166  0.0191
 3624TIP3   OH232430   5.060   3.093   2.350  0.4836 -0.1433 -0.4733
 3624TIP3    H132431   5.155   3.083   2.360  0.5990 -1.8948 -2.5381
 3624TIP3    H232432   5.048   3.112   2.257 -1.1156  2.0333  0.1270
 3625TIP3   OH232433   0.523   2.210   1.544 -0.9044  0.5201  0.0786
 3625TIP3    H132434   0.453   2.199   1.609 -0.5564 -1.9479  0.1132
 3625TIP3    H232435   0.477   2.215   1.460 -1.3303  3.3651  0.3712
 3626TIP3   OH232436   1.288   3.335   0.596 -0.2013  0.2902 -0.1125
 3626TIP3    H132437   1.213   3.277   0.614 -0.3380  0.8078  1.0293
 3626TIP3    H232438   1.251   3.423   0.592  0.3642  0.5699  0.6147
 3627TIP3   OH232439   1.024   2.449   1.746  0.2553  0.2536 -0.1795
 3627TIP3    H132440   0.995   2.390   1.815  1.3863 -2.0205 -1.5250
 3627TIP3    H232441   1.107   2.413   1.716  1.3012  2.8876 -0.7399
 3628TIP3   OH232442   6.053   0.090   1.131 -0.3590  0.0513 -0.5627
 3628TIP3    H132443   5.997   0.168   1.129  2.8433  2.5435 -2.0523
 3628TIP3    H232444   6.026   0.039   1.055 -1.3054  0.6431 -0.6415
 3629TIP3   OH232445   5.220   6.330   2.911 -0.1692  0.5061 -0.0171
 3629TIP3    H132446   5.200   6.238   2.926 -1.0995  0.4814 -1.2904
 3629TIP3    H232447   5.142   6.377   2.939  0.1377  0.8823  0.2250
 3630TIP3   OH232448   6.682   1.765   1.535  0.0036  0.1794  0.2613
 3630TIP3    H132449   6.611   1.722   1.582 -1.3751  0.1172 -1.7325
 3630TIP3    H232450   6.662   1.750   1.442  1.6650  1.6944 -0.4100
 3631TIP3   OH232451   6.185   4.256   0.499  0.4520 -0.5750  0.0845
 3631TIP3    H132452   6.112   4.312   0.471 -0.7836 -1.9809  0.3776
 3631TIP3    H232453   6.146   4.170   0.511  1.9906 -1.1742  1.1227
 3632TIP3   OH232454   4.564   1.474   2.775 -0.4109 -0.3641  0.2260
 3632TIP3    H132455   4.623   1.538   2.816 -0.5568 -0.0344 -0.0743
 3632TIP3    H232456   4.523   1.522   2.703 -0.6969 -0.7304  0.1433
 3633TIP3   OH232457   1.880   1.283   8.592 -0.1329 -0.3087 -0.6440
 3633TIP3    H132458   1.822   1.254   8.522 -0.4273 -1.4969  0.0550
 3633TIP3    H232459   1.837   1.252   8.672 -0.2645  1.7569  0.1566
 3634TIP3   OH232460   3.184   2.832   2.891  0.8664  0.1775  0.2744
 3634TIP3    H132461   3.191   2.857   2.984 -1.5789 -1.7006  1.0713
 3634TIP3    H232462   3.160   2.913   2.847  1.5915  1.0123  1.3549
 3635TIP3   OH232463   4.806   2.338   3.281  0.0063 -0.7463 -0.5457
 3635TIP3    H132464   4.888   2.298   3.312  1.6885  1.5753 -1.7065
 3635TIP3    H232465   4.774   2.388   3.356 -0.2353 -1.4729 -0.1581
 3636TIP3   OH232466   0.561   0.682   0.695 -0.1092 -0.9845 -0.2351
 3636TIP3    H132467   0.504   0.758   0.685 -2.1369 -2.5787 -1.8735
 3636TIP3    H232468   0.572   0.671   0.789 -1.7352 -0.0175  0.0986
 3637TIP3   OH232469   2.818   2.326   3.032  0.6145  0.2326 -0.4576
 3637TIP3    H132470   2.835   2.418   3.054  1.5751  0.1581 -0.8843
 3637TIP3    H232471   2.860   2.276   3.102 -1.3393  0.1231  0.7230
 3638TIP3   OH232472   1.516   5.287   7.407 -0.2142  0.1785 -0.2407
 3638TIP3    H132473   1.428   5.321   7.391 -0.3607 -0.9226 -2.0014
 3638TIP3    H232474   1.510   5.194   7.386  1.2436 -0.0382  0.1608
 3639TIP3   OH232475   2.599   5.530   1.651  0.0457 -0.0629 -1.0337
 3639TIP3    H132476   2.608   5.474   1.574 -1.1377 -0.3507 -0.9785
 3639TIP3    H232477   2.558   5.474   1.717 -0.1845  0.5575 -0.6376
 3640TIP3   OH232478   5.890   3.866   0.836 -0.5179 -0.1876 -0.9602
 3640TIP3    H132479   5.898   3.781   0.878 -0.0758  0.5868  0.5773
 3640TIP3    H232480   5.838   3.919   0.896  2.2369  1.7292 -0.0710
 3641TIP3   OH232481   2.041   2.164   8.163  0.7825  0.3820  0.1894
 3641TIP3    H132482   2.021   2.134   8.252 -0.6090 -1.3625 -0.6580
 3641TIP3    H232483   2.048   2.260   8.171  1.2476  0.2241  2.2462
 3642TIP3   OH232484   0.659   1.878   8.382 -0.2763 -0.8646  0.3925
 3642TIP3    H132485   0.752   1.887   8.402 -0.7631  2.2986  1.7552
 3642TIP3    H232486   0.654   1.886   8.287  0.7048  1.4618  0.4742
 3643TIP3   OH232487   3.360   6.710   1.076  0.0829 -0.2862  0.1629
 3643TIP3    H132488   3.359   6.638   1.013 -0.3951 -0.0754 -0.0784
 3643TIP3    H232489   3.378   6.669   1.160 -1.0853 -0.8040  0.1668
 3644TIP3   OH232490   5.663   2.331   0.946 -0.4694  0.3021  0.2524
 3644TIP3    H132491   5.643   2.257   0.890 -1.2192  1.2125 -0.7297
 3644TIP3    H232492   5.617   2.312   1.028  1.6629 -1.6443  1.0895
 3645TIP3   OH232493   0.780   4.900   0.827 -0.2926  0.2145  0.2648
 3645TIP3    H132494   0.701   4.948   0.801 -0.8990  0.2217  2.0176
 3645TIP3    H232495   0.769   4.885   0.921  0.7386 -1.7620  0.1149
 3646TIP3   OH232496   3.626   1.494   1.266  0.2319  0.2020 -0.1724
 3646TIP3    H132497   3.623   1.430   1.195  0.6543  1.2132 -1.1255
 3646TIP3    H232498   3.700   1.466   1.321  0.8519  0.2532 -0.9629
 3647TIP3   OH232499   3.922   3.543   2.049 -0.2067  0.2706  0.0539
 3647TIP3    H132500   4.013   3.571   2.061 -0.4239  0.7804  0.5939
 3647TIP3    H232501   3.928   3.456   2.011  0.5031  1.0681 -1.8010
 3648TIP3   OH232502   2.931   4.440   1.657 -0.2295 -0.1616  0.0305
 3648TIP3    H132503   2.923   4.533   1.638  0.3572 -0.7170 -3.5833
 3648TIP3    H232504   3.017   4.432   1.698 -0.1870  0.8464  0.1735
 3649TIP3   OH232505   3.138   0.262   2.368 -0.3967  0.1141 -0.4265
 3649TIP3    H132506   3.120   0.248   2.461  0.0699  2.6396  0.1184
 3649TIP3    H232507   3.225   0.224   2.355 -1.3017 -2.1114 -0.3929
 3650TIP3   OH232508   4.489   5.420   2.992  0.0633 -0.0493  0.2887
 3650TIP3    H132509   4.417   5.417   2.929  1.0920 -3.3664 -0.9907
 3650TIP3    H232510   4.448   5.411   3.077 -1.1832  1.3025 -0.1396
 3651TIP3   OH232511   0.923   5.637   1.369 -0.2381 -0.2622 -0.1030
 3651TIP3    H132512   0.895   5.721   1.404  0.4648  0.0097 -0.1712
 3651TIP3    H232513   0.878   5.572   1.423 -0.9037  0.1526 -0.1509
 3652TIP3   OH232514   1.648   5.412   8.387 -0.3144 -0.2940 -0.1364
 3652TIP3    H132515   1.647   5.367   8.302  4.1984  0.2602 -0.7184
 3652TIP3    H232516   1.644   5.505   8.365  1.7403 -0.1141  0.1011
 3653TIP3   OH232517   5.712   0.375   1.961  0.7215  0.1831  0.6927
 3653TIP3    H132518   5.677   0.290   1.984 -0.3603  0.6276  0.7506
 3653TIP3    H232519   5.649   0.438   1.995  1.7256  1.0365  1.0629
 3654TIP3   OH232520   5.401   1.670   1.629 -0.5944  0.0891  0.4221
 3654TIP3    H132521   5.350   1.712   1.559 -3.4752  0.3501  2.4906
 3654TIP3    H232522   5.387   1.726   1.706  2.5507 -0.1131  1.2602
 3655TIP3   OH232523   1.671   3.291   2.056 -0.4861  0.0871 -0.5072
 3655TIP3    H132524   1.747   3.341   2.085 -0.8252  0.1706  0.2501
 3655TIP3    H232525   1.643   3.335   1.976 -0.1253  0.4434 -0.4411
 3656TIP3   OH232526   0.504   6.632   1.349 -0.5600  0.1603 -0.1101
 3656TIP3    H132527   0.445   6.559   1.332 -1.4182  0.6809  0.5002
 3656TIP3    H232528   0.520   6.671   1.263  0.3711 -1.0618 -0.5179
 3657TIP3   OH232529   6.636   2.759   8.486 -0.7046  0.0855 -0.7035
 3657TIP3    H132530   6.636   2.759   8.581  0.7497  0.2595 -0.6816
 3657TIP3    H232531   6.706   2.819   8.462  0.9342 -2.1641 -1.8428
 3658TIP3   OH232532   0.702   4.207   8.388  0.7184  0.1903  0.4234
 3658TIP3    H132533   0.748   4.231   8.307 -1.6502  0.5032 -0.9251
 3658TIP3    H232534   0.728   4.274   8.451 -0.3192  2.3034 -1.2485
 3659TIP3   OH232535   5.008   3.689   0.189 -0.1267  0.0958 -0.1990
 3659TIP3    H132536   5.056   3.610   0.212 -0.6178 -0.4634 -1.0467
 3659TIP3    H232537   5.039   3.711   0.101 -2.3523 -1.0619 -1.3590
 3660TIP3   OH232538   6.319   3.494   1.666  0.0391  0.4102 -0.8455
 3660TIP3    H132539   6.399   3.538   1.640 -0.1408  0.4753 -1.3093
 3660TIP3    H232540   6.288   3.452   1.586  0.3345 -0.7648 -0.3592
 3661TIP3   OH232541   4.787   4.757   2.509 -0.9243 -0.0361  0.3701
 3661TIP3    H132542   4.792   4.723   2.420 -1.2473 -0.5406  0.5413
 3661TIP3    H232543   4.734   4.836   2.502  0.8097  1.1283 -0.2224
 3662TIP3   OH232544   0.639   6.599   0.843  0.1100  0.2826  0.0465
 3662TIP3    H132545   0.729   6.591   0.814  0.0960  1.5963 -0.4257
 3662TIP3    H232546   0.596   6.651   0.775 -1.2790 -1.1770 -0.2745
 3663TIP3   OH232547   1.345   5.449   0.705  0.6411 -0.1596 -0.1915
 3663TIP3    H132548   1.352   5.517   0.772 -1.1856  0.2133 -0.3247
 3663TIP3    H232549   1.424   5.459   0.651  1.3447  0.5638  0.9362
 3664TIP3   OH232550   0.140   3.927   8.374 -0.2065 -0.0693 -0.6094
 3664TIP3    H132551   0.049   3.934   8.346 -0.6814 -0.5135  0.7348
 3664TIP3    H232552   0.183   3.878   8.304 -1.4031 -1.3827 -0.4722
 3665TIP3   OH232553   3.873   2.407   1.918 -0.3904 -0.1802 -0.1607
 3665TIP3    H132554   3.964   2.414   1.891 -0.5700 -1.0006 -1.0263
 3665TIP3    H232555   3.831   2.486   1.882 -0.3801 -0.6820 -1.3223
 3666TIP3   OH232556   3.910   1.845   0.865 -1.2440 -0.0061 -0.3384
 3666TIP3    H132557   3.925   1.764   0.913  0.4172  0.7544  0.4980
 3666TIP3    H232558   3.855   1.898   0.923  0.5116  0.7913  0.6729
 3667TIP3   OH232559   5.803   4.260   7.367  0.3281  0.0053  0.1078
 3667TIP3    H132560   5.720   4.300   7.342  1.4301  1.3295 -1.6873
 3667TIP3    H232561   5.784   4.212   7.447 -1.4165  2.9506  1.6010
 3668TIP3   OH232562   1.330   0.982   2.573  0.0258  0.4158 -0.1671
 3668TIP3    H132563   1.342   1.066   2.530 -2.2103 -0.0901 -1.9683
 3668TIP3    H232564   1.365   0.995   2.661 -1.0018  3.5118 -0.1079
 3669TIP3   OH232565   2.354   2.435   2.735 -0.3718  0.0998 -0.1547
 3669TIP3    H132566   2.321   2.346   2.729 -2.0122  0.7175 -0.8885
 3669TIP3    H232567   2.393   2.441   2.822 -0.5294 -1.2227  0.0182
 3670TIP3   OH232568   3.071   2.623   8.324  0.2013  0.4695  0.0945
 3670TIP3    H132569   3.139   2.594   8.263 -1.0566  0.2122 -1.2501
 3670TIP3    H232570   2.988   2.598   8.282 -0.7663  1.5045  1.2824
 3671TIP3   OH232571   6.410   4.936   1.650  0.0091 -0.5295  0.5233
 3671TIP3    H132572   6.399   4.983   1.733 -0.1918 -1.7002  1.1865
 3671TIP3    H232573   6.327   4.891   1.637 -0.3444  0.4459 -0.8734
 3672TIP3   OH232574   2.370   5.093   1.904  0.8157  0.2397 -0.8992
 3672TIP3    H132575   2.323   5.023   1.949  2.4189 -0.0477  0.4292
 3672TIP3    H232576   2.416   5.049   1.832 -0.3339  0.4182 -1.7856
 3673TIP3   OH232577   3.930   0.599   1.917 -0.0919  0.1364  0.1906
 3673TIP3    H132578   3.914   0.568   2.006  1.4179 -0.9627  0.1262
 3673TIP3    H232579   3.940   0.518   1.866 -0.5757  0.7575 -0.9011
 3674TIP3   OH232580   5.426   0.010   2.962 -0.0704 -0.3415  0.5524
 3674TIP3    H132581   5.518   0.018   2.989 -0.4263 -0.4074  1.8622
 3674TIP3    H232582   5.383   0.086   3.001 -0.8247 -1.0387  1.1164
 3675TIP3   OH232583   3.373   4.870   1.002 -0.3416  0.1733  0.2589
 3675TIP3    H132584   3.450   4.884   0.947 -0.4851 -2.4118 -0.7262
 3675TIP3    H232585   3.406   4.824   1.079 -0.9319 -1.3848 -0.3940
 3676TIP3   OH232586   5.427   3.625   2.384 -0.2875 -0.0571  0.1968
 3676TIP3    H132587   5.482   3.551   2.358 -1.0418 -0.6437  0.2453
 3676TIP3    H232588   5.473   3.702   2.350  1.5072 -0.3514  1.7872
 3677TIP3   OH232589   5.527   6.540   2.493  0.0957 -0.1565 -0.1925
 3677TIP3    H132590   5.554   6.557   2.583  0.9334  1.5277 -0.7246
 3677TIP3    H232591   5.567   6.455   2.472 -0.3988 -0.7463  1.0900
 3678TIP3   OH232592   2.914   3.262   2.885 -1.1001  0.2226  0.0037
 3678TIP3    H132593   2.879   3.312   2.959  0.2337 -0.4028  1.0917
 3678TIP3    H232594   2.879   3.308   2.808 -1.1871  1.9000  0.9738
 3679TIP3   OH232595   2.414   5.294   7.637  0.2818  0.0032  0.3189
 3679TIP3    H132596   2.445   5.384   7.637 -3.1084  1.3324 -1.3016
 3679TIP3    H232597   2.408   5.270   7.544  0.6668 -1.7690  0.7046
 3680TIP3   OH232598   1.997   2.600   7.960  0.5903 -0.5450 -0.0731
 3680TIP3    H132599   1.925   2.651   7.924  1.7033  0.0491 -1.5075
 3680TIP3    H232600   2.029   2.652   8.034  2.6145  1.6989 -2.3251
 3681TIP3   OH232601   0.562   1.397   2.884  0.3601  0.0132  1.0159
 3681TIP3    H132602   0.589   1.396   2.792  2.0691  1.6697  1.4289
 3681TIP3    H232603   0.503   1.472   2.891 -2.2403 -1.8806  0.7289
 3682TIP3   OH232604   1.601   5.611   7.887 -0.2063 -0.2731 -0.0922
 3682TIP3    H132605   1.569   5.594   7.799  0.9759 -1.2351 -0.3600
 3682TIP3    H232606   1.688   5.572   7.889 -0.1871 -0.2094  1.4894
 3683TIP3   OH232607   5.455   6.412   1.098  0.2297 -0.1152 -0.2548
 3683TIP3    H132608   5.538   6.407   1.050  0.0399 -0.5902 -0.5460
 3683TIP3    H232609   5.399   6.466   1.042  1.1098  2.3722  1.1303
 3684TIP3   OH232610   5.400   0.571   7.880  0.1693 -0.8626  0.8445
 3684TIP3    H132611   5.400   0.653   7.930 -1.5987  0.2581 -0.7958
 3684TIP3    H232612   5.343   0.512   7.930 -1.1742  0.0668  0.4799
 3685TIP3   OH232613   1.892   1.549   8.662 -0.8057  0.5192  0.1155
 3685TIP3    H132614   1.804   1.581   8.681 -0.6542  0.6523  0.6125
 3685TIP3    H232615   1.879   1.464   8.622 -1.2137  1.1561 -1.1379
 3686TIP3   OH232616   3.928   0.855   1.137 -0.0195  0.6060 -0.2059
 3686TIP3    H132617   3.938   0.936   1.087  0.9582 -0.8728 -2.5727
 3686TIP3    H232618   3.833   0.841   1.142 -0.1543  0.9996 -1.3727
 3687TIP3   OH232619   3.088   3.912   0.771  0.3211  0.6771  0.2353
 3687TIP3    H132620   3.145   3.979   0.810  1.4909  0.6519 -1.3417
 3687TIP3    H232621   3.064   3.947   0.686  2.4697 -1.5829 -1.4436
 3688TIP3   OH232622   1.171   4.805   7.814 -0.1967 -0.1746 -0.1865
 3688TIP3    H132623   1.083   4.794   7.851 -0.6886  0.7779 -1.0348
 3688TIP3    H232624   1.178   4.736   7.748  0.7396 -1.9792  1.6810
 3689TIP3   OH232625   2.968   3.360   8.268 -0.5190  0.1232  0.2620
 3689TIP3    H132626   2.978   3.287   8.208 -0.8793  0.4990 -0.2610
 3689TIP3    H232627   3.041   3.351   8.329 -0.5305 -0.6344  0.1681
 3690TIP3   OH232628   5.164   5.697   1.344  0.4841 -0.2798 -0.1161
 3690TIP3    H132629   5.071   5.685   1.365  0.3754  0.7260  0.0612
 3690TIP3    H232630   5.210   5.636   1.401 -0.1435 -2.0648 -1.4392
 3691TIP3   OH232631   2.145   5.515   7.588 -0.5854 -0.2378  0.5794
 3691TIP3    H132632   2.132   5.438   7.643  2.8248 -1.5850 -0.2670
 3691TIP3    H232633   2.227   5.553   7.619  0.6292 -0.1502 -2.4305
 3692TIP3   OH232634   0.927   5.232   8.308 -0.0890  0.7611 -0.0882
 3692TIP3    H132635   1.014   5.228   8.268 -0.2206  2.0068 -0.5472
 3692TIP3    H232636   0.881   5.156   8.274  1.8646 -2.0041  2.8295
 3693TIP3   OH232637   5.115   6.030   0.499 -0.1602 -0.1472  0.3435
 3693TIP3    H132638   5.056   6.090   0.544 -1.7614 -0.2965 -1.4501
 3693TIP3    H232639   5.092   6.038   0.407 -0.8390 -3.8428  0.0337
 3694TIP3   OH232640   1.438   0.841   0.229  0.4553  0.1685  0.2548
 3694TIP3    H132641   1.468   0.775   0.167  1.9562 -0.5679  1.6707
 3694TIP3    H232642   1.441   0.923   0.181  1.4764 -0.3937 -0.6808
 3695TIP3   OH232643   1.719   1.578   1.184 -0.1746  0.2492  0.6134
 3695TIP3    H132644   1.804   1.557   1.143  1.0346 -0.0830  3.0906
 3695TIP3    H232645   1.742   1.632   1.259 -2.4365  2.2080  0.0231
 3696TIP3   OH232646   0.561   5.969   1.502  1.0276  0.6096 -0.2469
 3696TIP3    H132647   0.581   6.040   1.562 -0.4758 -0.4127  1.5708
 3696TIP3    H232648   0.481   5.997   1.458  0.4272  0.0754  0.4802
 3697TIP3   OH232649   3.478   3.456   0.682  0.4601 -0.3943 -0.7117
 3697TIP3    H132650   3.496   3.492   0.769 -0.6443  1.5383 -1.2254
 3697TIP3    H232651   3.383   3.458   0.674  0.4120 -2.2867 -1.3157
 3698TIP3   OH232652   2.733   0.707   8.168 -0.0905  0.0001 -0.2469
 3698TIP3    H132653   2.821   0.695   8.204 -0.0712  1.5000  0.2716
 3698TIP3    H232654   2.704   0.790   8.204 -0.9454  0.4937 -1.9771
 3699TIP3   OH232655   3.920   0.568   8.739  0.0911  0.5003 -0.0452
 3699TIP3    H132656   3.943   0.476   8.754  2.4649  0.7892 -1.3544
 3699TIP3    H232657   3.854   0.565   8.670  0.6704 -0.2371 -0.5891
 3700TIP3   OH232658   5.241   1.533   2.439  0.0194 -0.3313 -0.5549
 3700TIP3    H132659   5.336   1.541   2.427  0.0945 -1.0935 -0.5362
 3700TIP3    H232660   5.226   1.439   2.448 -0.7286 -0.2084 -0.4440
 3701TIP3   OH232661   2.182   3.906   1.066  0.2626 -0.5164 -0.4000
 3701TIP3    H132662   2.271   3.935   1.044 -0.2755  0.1795 -1.8047
 3701TIP3    H232663   2.194   3.823   1.111  1.6156 -0.5961 -0.8630
 3702TIP3   OH232664   6.124   0.598   8.034 -0.0712 -0.1847 -0.0892
 3702TIP3    H132665   6.162   0.686   8.038 -0.9570  0.2040 -0.1432
 3702TIP3    H232666   6.037   0.608   8.072 -0.2223 -1.0192 -0.2098
 3703TIP3   OH232667   1.859   2.948   8.012 -0.5922  0.4778  0.1098
 3703TIP3    H132668   1.809   2.868   7.993  0.9599 -0.5274  0.0159
 3703TIP3    H232669   1.794   3.012   8.037 -1.9280 -0.7376 -0.1200
 3704TIP3   OH232670   1.074   2.170   2.641  0.2786  0.1670  0.1148
 3704TIP3    H132671   1.165   2.144   2.653 -0.2126 -0.7995  2.1223
 3704TIP3    H232672   1.079   2.256   2.599  2.0803 -0.2292 -0.5432
 3705TIP3   OH232673   1.270   3.276   0.271 -0.2344  0.5768  0.0493
 3705TIP3    H132674   1.190   3.324   0.289 -1.3040  0.2666 -3.1644
 3705TIP3    H232675   1.330   3.343   0.237 -1.0837  0.1320 -2.6227
 3706TIP3   OH232676   6.283   3.901   0.335 -0.2377  0.7633  0.0195
 3706TIP3    H132677   6.290   3.914   0.430 -1.2310 -1.6136  0.4771
 3706TIP3    H232678   6.373   3.883   0.307  0.0029  1.0739  0.5765
 3707TIP3   OH232679   4.006   5.186   8.833 -0.3196 -0.5013 -0.4984
 3707TIP3    H132680   3.974   5.096   8.843 -0.5464 -0.2236  2.0155
 3707TIP3    H232681   4.069   5.197   8.904 -0.0389  1.2328 -0.9616
 3708TIP3   OH232682   5.213   5.258   2.431  0.3420  0.1009 -0.1191
 3708TIP3    H132683   5.225   5.313   2.509 -3.5339 -0.3844  1.0266
 3708TIP3    H232684   5.217   5.168   2.464 -1.6450 -0.1039 -0.2716
 3709TIP3   OH232685   3.959   2.856   1.453  0.3119 -0.0499 -0.4388
 3709TIP3    H132686   3.979   2.830   1.363  3.4273  1.2707 -0.2632
 3709TIP3    H232687   4.019   2.804   1.507 -0.8204 -0.1111  0.8077
 3710TIP3   OH232688   3.001   2.319   0.902 -0.5795  0.2111  0.1041
 3710TIP3    H132689   2.923   2.353   0.860 -0.3780  0.3918 -0.1255
 3710TIP3    H232690   3.055   2.397   0.920  0.2777 -0.0508 -1.2103
 3711TIP3   OH232691   4.818   4.159   0.868  0.3433 -0.2607  0.8109
 3711TIP3    H132692   4.911   4.136   0.875  0.5877  0.1714 -0.6928
 3711TIP3    H232693   4.784   4.147   0.956  2.3996  2.0646  2.0633
 3712TIP3   OH232694   2.572   3.135   1.207  0.2912 -0.3253  0.2122
 3712TIP3    H132695   2.547   3.215   1.161 -2.3782 -1.0831  0.1471
 3712TIP3    H232696   2.643   3.098   1.156  0.4101  1.1478 -0.7208
 3713TIP3   OH232697   1.930   5.632   8.239  0.1749 -0.4149  0.4358
 3713TIP3    H132698   1.908   5.624   8.332  0.7601  0.8265  0.7005
 3713TIP3    H232699   2.015   5.674   8.238 -0.3284  0.6394 -0.6740
 3714TIP3   OH232700   4.973   4.333   8.909 -0.3974 -0.1616  0.0469
 3714TIP3    H132701   5.007   4.349   8.821 -1.3492  1.9155 -0.0185
 3714TIP3    H232702   4.917   4.256   8.900 -1.0553  0.4497 -1.3389
 3715TIP3   OH232703   0.513   2.451   0.446  0.5746 -0.0805 -0.5264
 3715TIP3    H132704   0.551   2.531   0.408  0.3143 -0.2184 -1.0804
 3715TIP3    H232705   0.489   2.476   0.536 -2.1730  1.3341 -1.5415
 3716TIP3   OH232706   6.187   4.851   0.494 -0.1040 -0.4675  0.2736
 3716TIP3    H132707   6.106   4.807   0.518  0.6066 -0.5277  2.9328
 3716TIP3    H232708   6.164   4.944   0.492 -0.7188 -0.6310 -1.3523
 3717TIP3   OH232709   4.690   0.900   7.522  0.7737  0.3640  0.2788
 3717TIP3    H132710   4.762   0.956   7.493  0.5056 -0.2781 -1.8804
 3717TIP3    H232711   4.611   0.954   7.512  0.7071  0.2160 -0.0460
 3718TIP3   OH232712   0.736   1.737   8.786 -0.2030  0.3106  0.7409
 3718TIP3    H132713   0.670   1.741   8.716  0.2489  0.2971  0.3045
 3718TIP3    H232714   0.762   1.828   8.800 -0.4954  0.3428  1.0947
 3719TIP3   OH232715   2.215   6.312   0.281  0.0368 -0.1243  0.6455
 3719TIP3    H132716   2.130   6.331   0.320  0.4329  2.1649  0.5075
 3719TIP3    H232717   2.201   6.230   0.234 -1.9149 -0.1314  1.1440
 3720TIP3   OH232718   3.514   6.562   1.744  0.0646  0.3588  0.9989
 3720TIP3    H132719   3.445   6.627   1.757 -0.2267  0.6375 -1.4367
 3720TIP3    H232720   3.592   6.602   1.784  0.1339  2.7536 -1.1991
 3721TIP3   OH232721   4.471   3.278   8.499  0.3183 -0.3445  0.3909
 3721TIP3    H132722   4.477   3.194   8.454 -0.1257  0.8519 -2.0484
 3721TIP3    H232723   4.489   3.344   8.431 -0.5123  1.5876  1.9320
 3722TIP3   OH232724   5.566   6.200   1.818 -0.0185  0.7366 -0.1272
 3722TIP3    H132725   5.612   6.189   1.735 -0.1784  0.9623 -0.2456
 3722TIP3    H232726   5.489   6.252   1.796  0.0245  0.9360  0.1880
 3723TIP3   OH232727   3.952   1.263   1.297  0.3343  0.2548  0.3947
 3723TIP3    H132728   4.025   1.261   1.359  0.3073  1.7651  0.5101
 3723TIP3    H232729   3.886   1.318   1.339 -1.5075 -2.2142  0.9174
 3724TIP3   OH232730   1.809   5.428   1.234 -0.5136 -0.1711  0.8902
 3724TIP3    H132731   1.861   5.480   1.172 -1.0076 -0.8878 -0.1703
 3724TIP3    H232732   1.853   5.343   1.237 -0.2619 -0.0138  1.8537
 3725TIP3   OH232733   4.068   0.100   0.983  0.1494  0.3732  0.5829
 3725TIP3    H132734   4.019   0.119   0.903  0.4903 -1.6966 -0.1782
 3725TIP3    H232735   4.160   0.106   0.957  0.2639 -0.8732  0.6280
 3726TIP3   OH232736   5.886   3.920   1.424 -0.2221 -0.2197  0.5409
 3726TIP3    H132737   5.933   3.924   1.340 -2.0011  1.8442 -0.4676
 3726TIP3    H232738   5.844   3.834   1.424  1.1038 -0.8865  0.0828
 3727TIP3   OH232739   3.459   4.355   8.322 -0.1190  0.0480 -0.1213
 3727TIP3    H132740   3.553   4.341   8.336  0.8529  2.9830 -2.7050
 3727TIP3    H232741   3.430   4.399   8.402  1.7597  2.8430 -0.8335
 3728TIP3   OH232742   1.104   6.390   2.584 -0.3973  0.0870  0.2112
 3728TIP3    H132743   1.149   6.306   2.580 -1.6196 -0.6157  0.4739
 3728TIP3    H232744   1.156   6.448   2.529  0.4024 -0.8728 -0.0834
 3729TIP3   OH232745   4.730   1.839   1.246 -0.0431  0.4854  0.0266
 3729TIP3    H132746   4.658   1.879   1.196 -0.5102  0.5838  0.7712
 3729TIP3    H232747   4.787   1.913   1.268  0.9575  0.2481 -1.6185
 3730TIP3   OH232748   1.100   1.954   8.387 -0.5072 -0.8328 -0.0687
 3730TIP3    H132749   1.050   2.028   8.352  0.5841 -0.2447 -0.4295
 3730TIP3    H232750   1.074   1.879   8.332  0.4456 -0.1263 -1.5422
 3731TIP3   OH232751   5.034   4.299   8.266 -0.0077 -0.0016  0.3888
 3731TIP3    H132752   5.048   4.204   8.269  0.0749 -0.0344 -0.6067
 3731TIP3    H232753   5.100   4.335   8.325  1.4761 -0.4420 -0.9109
 3732TIP3   OH232754   5.357   4.248   1.462 -0.2056  0.4495 -0.1779
 3732TIP3    H132755   5.333   4.175   1.406 -0.4963  0.6961 -0.3774
 3732TIP3    H232756   5.416   4.210   1.527 -1.1454 -0.1594  0.3327
 3733TIP3   OH232757   4.497   5.898   2.737 -0.0584 -0.5362 -0.6958
 3733TIP3    H132758   4.465   5.926   2.823 -1.3349 -2.3010 -0.5414
 3733TIP3    H232759   4.451   5.954   2.675  1.4356  1.2726 -0.2740
 3734TIP3   OH232760   0.894   1.544   2.521 -0.3207 -0.1151 -0.4546
 3734TIP3    H132761   0.933   1.554   2.607 -1.6399 -1.7908  0.3919
 3734TIP3    H232762   0.860   1.631   2.500 -1.2546  0.0212  1.3886
 3735TIP3   OH232763   3.357   3.442   2.380  0.1269  0.6907 -0.2092
 3735TIP3    H132764   3.345   3.399   2.464 -1.8889 -0.7078 -1.1374
 3735TIP3    H232765   3.308   3.524   2.387  1.0066  1.1781  0.3712
 3736TIP3   OH232766   1.006   0.016   2.995  0.0484  0.4853 -0.1242
 3736TIP3    H132767   1.059  -0.059   3.023 -1.3304 -0.8919 -1.0275
 3736TIP3    H232768   1.009   0.013   2.899  0.6430  2.1211 -0.1917
 3737TIP3   OH232769   1.649   3.960   8.202  0.6901  0.5030  0.5194
 3737TIP3    H132770   1.711   4.009   8.149  0.8661  1.4106  1.5247
 3737TIP3    H232771   1.699   3.885   8.234  1.6474  1.7489  2.1497
 3738TIP3   OH232772   5.175   2.414   1.740  0.6802 -0.2557 -0.3561
 3738TIP3    H132773   5.178   2.424   1.645  0.9969  1.8442 -0.1741
 3738TIP3    H232774   5.256   2.457   1.770 -0.2505  0.6494  0.9398
 3739TIP3   OH232775   0.311   0.649   2.284 -0.3922 -0.2332  0.2146
 3739TIP3    H132776   0.389   0.601   2.313  1.0148  1.5524 -0.4468
 3739TIP3    H232777   0.239   0.589   2.300  0.8373 -1.1567  2.9462
 3740TIP3   OH232778   1.591   3.118   8.860  0.0583  0.5218 -0.1877
 3740TIP3    H132779   1.613   3.030   8.829  0.4266  0.6132 -0.1993
 3740TIP3    H232780   1.605   3.114   8.954 -1.4864  0.1207  0.0438
 3741TIP3   OH232781   3.729   4.491   8.149  0.3738 -0.6851 -0.0852
 3741TIP3    H132782   3.771   4.524   8.069  1.4575  1.2644  1.2099
 3741TIP3    H232783   3.796   4.435   8.188  0.1675 -0.9418 -0.0994
 3742TIP3   OH232784   6.056   0.712   0.365  0.4159 -0.2131 -0.4341
 3742TIP3    H132785   6.011   0.772   0.305 -0.6463  0.1988  0.7316
 3742TIP3    H232786   6.032   0.625   0.335  0.8969 -0.0418 -1.3441
 3743TIP3   OH232787   0.266   5.156   0.838 -0.2508  0.5529  0.2138
 3743TIP3    H132788   0.246   5.072   0.796 -1.1567  0.0330  1.6473
 3743TIP3    H232789   0.238   5.222   0.774 -0.4552 -0.2114 -0.5075
 3744TIP3   OH232790   1.673   4.202   3.484  0.3800  0.3974  0.0819
 3744TIP3    H132791   1.639   4.160   3.405 -1.1090  1.6175  0.0442
 3744TIP3    H232792   1.612   4.273   3.503 -0.7011 -1.2466  3.6590
 3745TIP3   OH232793   4.223   3.979   7.716 -0.2867 -0.1325  0.3516
 3745TIP3    H132794   4.163   3.925   7.664 -2.1986  1.0980  1.1540
 3745TIP3    H232795   4.241   3.925   7.794 -1.1329 -0.1700  0.5389
 3746TIP3   OH232796   2.470   3.886   1.932  0.4203  0.2445 -0.2475
 3746TIP3    H132797   2.445   3.859   1.844 -0.5015 -0.7147  0.2766
 3746TIP3    H232798   2.447   3.811   1.987  3.5297 -0.3134  0.4663
 3747TIP3   OH232799   1.845   1.778   0.697 -0.0870 -0.3179 -0.3323
 3747TIP3    H132800   1.851   1.707   0.762 -1.4463  0.4894  0.7211
 3747TIP3    H232801   1.908   1.753   0.629 -1.5256 -3.3017 -0.7334
 3748TIP3   OH232802   0.770   3.779   2.216 -0.5519  0.1200 -0.2738
 3748TIP3    H132803   0.748   3.757   2.126 -0.1201  0.2175 -0.4062
 3748TIP3    H232804   0.825   3.857   2.209  0.0016 -0.2374  0.0344
 3749TIP3   OH232805   0.837   6.384   8.457  0.7841  0.4754  0.6623
 3749TIP3    H132806   0.747   6.352   8.444  1.0351 -0.1714  0.4443
 3749TIP3    H232807   0.832   6.438   8.535  0.0788  0.9536  0.2990
 3750TIP3   OH232808   3.768   3.636   8.845  0.8281 -0.2384  0.3536
 3750TIP3    H132809   3.696   3.573   8.853 -2.5234  3.3355  2.0190
 3750TIP3    H232810   3.755   3.675   8.759  3.5483 -2.2681 -1.1363
 3751TIP3   OH232811   5.732   5.386   0.553  0.2361  0.1593  0.5309
 3751TIP3    H132812   5.721   5.424   0.466 -0.6955 -0.7943  0.2176
 3751TIP3    H232813   5.765   5.298   0.537  0.3516  0.0838  1.1622
 3752TIP3   OH232814   1.469   3.663   0.871  0.9605  0.3384  0.3562
 3752TIP3    H132815   1.486   3.715   0.950  0.2017 -0.9919  1.4498
 3752TIP3    H232816   1.385   3.694   0.838  1.2346  0.8345  0.1219
 3753TIP3   OH232817   3.648   4.491   7.871  0.6528  0.2117  0.0423
 3753TIP3    H132818   3.643   4.402   7.903  1.7769 -0.1355 -0.6922
 3753TIP3    H232819   3.735   4.498   7.831  0.2585  1.3578 -0.6872
 3754TIP3   OH232820   5.033   6.551   3.007  0.1479 -0.1522 -0.1611
 3754TIP3    H132821   5.030   6.601   3.088 -1.8072  1.4920 -1.1577
 3754TIP3    H232822   5.041   6.617   2.938  0.8176 -1.4486 -1.3710
 3755TIP3   OH232823   1.795   4.538   2.863 -0.0421 -0.2203  0.1207
 3755TIP3    H132824   1.888   4.544   2.883 -0.2760  0.4196  1.0606
 3755TIP3    H232825   1.758   4.620   2.897 -0.7827  0.0126 -1.1838
 3756TIP3   OH232826   3.846   6.085   1.318 -0.2127  0.3532 -0.1371
 3756TIP3    H132827   3.846   6.125   1.231  0.1336  1.8925  0.5312
 3756TIP3    H232828   3.779   6.133   1.367 -0.3831 -0.4725  0.4726
 3757TIP3   OH232829   1.715   4.136   0.767 -1.0820  0.4259  0.6696
 3757TIP3    H132830   1.669   4.060   0.802 -0.3755 -0.4697 -0.2740
 3757TIP3    H232831   1.801   4.134   0.808  0.4890 -1.7680 -2.3333
 3758TIP3   OH232832   1.937   0.151   1.673  0.4945 -0.3399 -0.6205
 3758TIP3    H132833   1.864   0.171   1.732  0.0655 -1.6180 -0.6881
 3758TIP3    H232834   1.933   0.056   1.662  0.8008 -0.1737 -2.3993
 3759TIP3   OH232835   2.939   3.174   1.043  0.0946  0.5247 -0.1608
 3759TIP3    H132836   2.948   3.264   1.011  0.6765  0.6163  0.2585
 3759TIP3    H232837   3.011   3.127   1.002 -1.2399 -0.1814 -1.8295
 3760TIP3   OH232838   4.362   2.425   1.528 -0.6439 -0.2523  0.7230
 3760TIP3    H132839   4.405   2.400   1.609 -0.5477  0.4206  0.8879
 3760TIP3    H232840   4.429   2.472   1.478 -0.8301 -0.2726  0.4495
 3761TIP3   OH232841   0.808   5.807   8.142  0.5009  0.1890  0.3160
 3761TIP3    H132842   0.874   5.771   8.083  2.6900  0.3708  2.4835
 3761TIP3    H232843   0.800   5.899   8.116  1.9017  0.4252  0.6124
 3762TIP3   OH232844   4.327   3.902   0.056 -0.1863 -0.0648 -0.1405
 3762TIP3    H132845   4.267   3.889  -0.018 -1.6394 -0.9175  1.1144
 3762TIP3    H232846   4.326   3.996   0.071 -0.1610  0.0757 -0.9671
 3763TIP3   OH232847   4.883   0.095   2.028  0.8168  0.0651  0.0685
 3763TIP3    H132848   4.813   0.115   1.965 -0.7939  0.4035  1.8441
 3763TIP3    H232849   4.936   0.029   1.985  0.1809  0.7604 -1.8915
 3764TIP3   OH232850   0.065   2.934   8.395 -0.2408 -0.3966 -0.4248
 3764TIP3    H132851   0.003   2.994   8.354  0.5642  1.9113  1.5296
 3764TIP3    H232852   0.115   2.898   8.321 -2.0084 -0.2015 -1.8007
 3765TIP3   OH232853   0.762   5.350   1.661 -0.0927 -0.1234  0.2721
 3765TIP3    H132854   0.824   5.303   1.716  0.5384  0.3426 -0.0384
 3765TIP3    H232855   0.767   5.441   1.690  1.4445  0.4486 -1.5791
 3766TIP3   OH232856   4.064   5.616   0.972  0.3486  0.0996 -0.6272
 3766TIP3    H132857   4.037   5.694   0.925  0.2852 -0.0335 -0.8137
 3766TIP3    H232858   4.036   5.543   0.916  3.2814 -0.0360 -2.1184
 3767TIP3   OH232859   4.531   1.056   2.578  0.2354 -0.0874  0.3971
 3767TIP3    H132860   4.487   1.069   2.494  3.4999  1.0565 -1.3233
 3767TIP3    H232861   4.565   0.966   2.573  0.7647  0.1129  0.2740
 3768TIP3   OH232862   3.418   5.075   3.268 -0.5235 -0.2543  0.4482
 3768TIP3    H132863   3.456   5.059   3.354 -0.0153 -0.7931  0.1342
 3768TIP3    H232864   3.492   5.098   3.213 -0.7945 -0.2744  0.0738
 3769TIP3   OH232865   5.171   3.247   8.077 -0.4531  0.4744 -0.1043
 3769TIP3    H132866   5.189   3.307   8.149  0.4755 -0.5601  0.5611
 3769TIP3    H232867   5.075   3.245   8.071 -0.6996 -1.0211  2.5562
 3770TIP3   OH232868   1.217   6.771   1.875  0.9751 -0.0899  0.1520
 3770TIP3    H132869   1.248   6.849   1.830  2.9799 -0.1396  1.3403
 3770TIP3    H232870   1.250   6.780   1.964  0.2161 -1.7172  0.6314
 3771TIP3   OH232871   5.108   6.563   2.502  0.5848  0.3056 -0.0932
 3771TIP3    H132872   5.147   6.486   2.545 -0.3762 -0.4135 -0.4753
 3771TIP3    H232873   5.166   6.635   2.526  1.6493 -0.5744  0.0910
 3772TIP3   OH232874   3.744   1.748   0.588  0.2735 -0.4240  0.2200
 3772TIP3    H132875   3.786   1.718   0.508  1.7007 -3.5138  1.9723
 3772TIP3    H232876   3.651   1.730   0.573  0.3854 -0.0778 -1.0549
 3773TIP3   OH232877   3.034   2.254   7.155 -0.0476 -0.1304 -0.4916
 3773TIP3    H132878   2.942   2.244   7.130 -0.7066 -1.3298  2.0648
 3773TIP3    H232879   3.074   2.299   7.081 -2.5681 -0.0196 -1.9097
 3774TIP3   OH232880   0.471   2.885   0.003  0.1370  0.5548 -0.0986
 3774TIP3    H132881   0.399   2.828   0.030  0.7099 -0.8573 -1.3755
 3774TIP3    H232882   0.474   2.953   0.070 -0.9261 -0.6261  1.2287
 3775TIP3   OH232883   3.896   1.759   8.012 -0.2481  0.5071  0.3286
 3775TIP3    H132884   3.813   1.796   8.043  0.1153  0.3838  1.4897
 3775TIP3    H232885   3.925   1.702   8.083  1.3642  1.3530  0.3990
 3776TIP3   OH232886   4.555   1.991   1.091 -0.1636  0.5843 -0.0061
 3776TIP3    H132887   4.583   2.056   1.026  1.7609  0.4191  0.5968
 3776TIP3    H232888   4.502   2.041   1.153 -3.4336  0.4545 -2.4380
 3777TIP3   OH232889   3.044   3.756   2.202  0.1017 -0.0529  0.3380
 3777TIP3    H132890   3.112   3.763   2.270  0.1781 -0.1220  0.2697
 3777TIP3    H232891   2.972   3.710   2.246 -0.2086  0.7035  0.6375
 3778TIP3   OH232892   2.269   5.346   7.179 -0.9817 -0.1499 -0.2620
 3778TIP3    H132893   2.196   5.335   7.239 -2.0910  0.5691 -1.4105
 3778TIP3    H232894   2.238   5.411   7.116 -0.6353 -2.2086 -2.7315
 3779TIP3   OH232895   0.724   3.524   1.340  0.0244 -0.3431  0.8236
 3779TIP3    H132896   0.806   3.477   1.358  1.6241  1.6254 -0.7159
 3779TIP3    H232897   0.720   3.590   1.409  1.0987  1.1050 -0.4272
 3780TIP3   OH232898   0.728   4.972   8.017 -0.4499  0.2616 -0.1026
 3780TIP3    H132899   0.633   4.982   8.021 -0.3365  1.9633 -0.6416
 3780TIP3    H232900   0.760   5.057   7.985  1.2484 -0.2889 -0.0011
 3781TIP3   OH232901   2.070   5.642   0.306 -0.1505  0.6233 -0.4340
 3781TIP3    H132902   1.986   5.674   0.338 -0.4068 -0.2270 -0.2352
 3781TIP3    H232903   2.091   5.699   0.232 -0.3496  1.5593  0.2169
 3782TIP3   OH232904   6.757   4.479   8.836  0.2616  0.1071  0.3105
 3782TIP3    H132905   6.666   4.461   8.816  0.2591  0.6026 -0.1376
 3782TIP3    H232906   6.780   4.553   8.780  0.2416  1.5720  2.1467
 3783TIP3   OH232907   2.714   4.285   2.997  0.0191 -0.3010 -0.4854
 3783TIP3    H132908   2.690   4.377   3.011  2.1587  0.4755 -1.4867
 3783TIP3    H232909   2.637   4.246   2.956 -0.3434  1.5094 -1.6459
 3784TIP3   OH232910   0.956   6.276   0.300  0.0848 -0.4744 -0.2288
 3784TIP3    H132911   0.931   6.322   0.380 -0.9981 -0.7113 -0.4188
 3784TIP3    H232912   0.874   6.261   0.254  0.4504 -2.2266 -0.3798
 3785TIP3   OH232913   2.204   1.634   8.480 -0.3099  0.1819 -1.1036
 3785TIP3    H132914   2.278   1.574   8.467  0.1886  0.5423 -0.0586
 3785TIP3    H232915   2.130   1.590   8.437 -0.1376 -1.5732  0.2705
 3786TIP3   OH232916   5.595   1.156   7.651 -0.0229 -0.0555  0.3126
 3786TIP3    H132917   5.530   1.176   7.585  1.2541  1.2722 -0.6121
 3786TIP3    H232918   5.652   1.234   7.653  1.4942 -1.1237  1.1024
 3787TIP3   OH232919   1.040   3.945   1.184 -0.3878 -0.0431  0.1206
 3787TIP3    H132920   0.968   3.984   1.232 -0.6193 -0.3562  0.0251
 3787TIP3    H232921   1.030   3.851   1.195 -0.1807 -0.1026 -0.1594
 3788TIP3   OH232922   2.050   6.524   0.700 -0.2612  0.1289 -0.0782
 3788TIP3    H132923   2.039   6.612   0.735  1.4726  0.8025 -1.0780
 3788TIP3    H232924   2.031   6.466   0.773  0.4921  1.3913  1.1664
 3789TIP3   OH232925   5.316   6.130   1.635  0.4954 -0.2151  0.4111
 3789TIP3    H132926   5.337   6.192   1.565  2.9461  0.7033  1.8267
 3789TIP3    H232927   5.333   6.044   1.596  1.4253  0.2475 -0.2575
 3790TIP3   OH232928   5.238   2.369   0.532 -0.1626  0.7160 -0.4026
 3790TIP3    H132929   5.282   2.365   0.617 -1.4790  0.1598  0.2866
 3790TIP3    H232930   5.150   2.400   0.552 -1.0476 -1.0159 -1.3142
 3791TIP3   OH232931   1.353   3.543   0.286 -0.3697 -0.1895 -0.4189
 3791TIP3    H132932   1.417   3.594   0.236 -0.7539  0.5627 -0.1752
 3791TIP3    H232933   1.300   3.610   0.331 -1.0199 -0.8062 -0.2478
 3792TIP3   OH232934   6.092   3.709   0.663 -0.4501 -0.5917 -0.2423
 3792TIP3    H132935   6.004   3.746   0.649 -0.0320  0.9678  0.9671
 3792TIP3    H232936   6.144   3.742   0.590 -0.2913  0.5752  0.3745
 3793TIP3   OH232937   1.450   0.627   0.685 -0.3413 -0.3985  0.3562
 3793TIP3    H132938   1.406   0.683   0.622  1.1297  0.6270  0.1899
 3793TIP3    H232939   1.431   0.538   0.656 -1.2843  0.0253 -0.3779
 3794TIP3   OH232940   3.956   2.568   0.890 -0.3706 -0.1309 -0.3000
 3794TIP3    H132941   3.864   2.576   0.916 -0.3010 -0.4674  0.0481
 3794TIP3    H232942   3.990   2.658   0.896 -0.7126  0.0219 -0.5834
 3795TIP3   OH232943   1.443   4.964   8.902 -0.6716  0.8697 -0.4936
 3795TIP3    H132944   1.471   5.055   8.898 -0.4178  0.7735 -1.1144
 3795TIP3    H232945   1.525   4.914   8.902 -0.8050  0.6474  0.0764
 3796TIP3   OH232946   4.813   5.764   1.005  0.8801  0.4857  0.5657
 3796TIP3    H132947   4.827   5.843   0.953  1.1191 -0.2992 -0.6022
 3796TIP3    H232948   4.857   5.695   0.955 -0.8919 -0.7306  0.5936
 3797TIP3   OH232949   5.710   1.670   3.246  0.4721 -0.1094 -0.4735
 3797TIP3    H132950   5.640   1.736   3.242 -0.4757 -1.0816 -0.3197
 3797TIP3    H232951   5.678   1.598   3.191  1.7360 -0.2346 -1.0922
 3798TIP3   OH232952   3.790   2.735   0.039 -0.3092 -0.1822  0.2125
 3798TIP3    H132953   3.728   2.807   0.046  0.4022  0.3388  1.4244
 3798TIP3    H232954   3.867   2.764   0.088  0.8837 -0.8364 -1.1640
 3799TIP3   OH232955   6.005   2.880   8.261  0.1393 -0.5462 -0.3770
 3799TIP3    H132956   6.003   2.789   8.288  1.2155 -0.7112 -0.7952
 3799TIP3    H232957   6.065   2.882   8.186  3.4490  1.0825  2.0610
 3800TIP3   OH232958   2.023   6.604   2.165 -0.7026 -0.1544  0.2732
 3800TIP3    H132959   2.064   6.590   2.080 -0.1075 -1.2894  0.7176
 3800TIP3    H232960   1.960   6.532   2.173 -0.2176 -0.5025  1.0927
 3801TIP3   OH232961   4.942   5.327   0.778  0.1042 -0.6017 -0.3199
 3801TIP3    H132962   4.959   5.269   0.703  0.1267  0.9392 -1.5658
 3801TIP3    H232963   4.969   5.276   0.854  1.4715 -1.6971 -1.4797
 3802TIP3   OH232964   0.424   3.702   2.276 -0.1189 -0.7344 -0.4157
 3802TIP3    H132965   0.482   3.675   2.205  0.0329  1.4315 -1.2072
 3802TIP3    H232966   0.481   3.746   2.339 -0.5903 -0.4623 -0.1665
 3803TIP3   OH232967   2.876   1.103   1.454  0.2129  0.2218  0.1896
 3803TIP3    H132968   2.862   1.011   1.434  1.6928 -0.2131  1.0151
 3803TIP3    H232969   2.853   1.111   1.547 -0.0031  0.7091  0.0972
 3804TIP3   OH232970   5.265   2.706   1.409 -0.1000 -0.1466  0.1777
 3804TIP3    H132971   5.180   2.703   1.452 -0.6102 -0.1590 -0.8065
 3804TIP3    H232972   5.305   2.621   1.429 -0.2663 -0.0921  0.7434
 3805TIP3   OH232973   0.649   4.922   0.551 -0.7885  0.5631  0.1356
 3805TIP3    H132974   0.572   4.925   0.608 -1.1203  1.1953 -0.3316
 3805TIP3    H232975   0.636   4.842   0.499 -0.1993 -0.3229  1.3159
 3806TIP3   OH232976   4.126   6.094   2.744  0.4783  0.2818 -0.4199
 3806TIP3    H132977   4.127   6.161   2.676 -0.2350  0.1356 -0.5894
 3806TIP3    H232978   4.167   6.135   2.820  0.0941  0.8919 -0.5387
 3807TIP3   OH232979   2.453   5.671   0.814 -0.1358  0.7774 -0.5091
 3807TIP3    H132980   2.368   5.710   0.837 -1.0993 -1.5485  0.1960
 3807TIP3    H232981   2.482   5.629   0.895  1.6866  1.4053 -0.7768
 3808TIP3   OH232982   6.095   5.014   1.935 -0.4825  0.0365 -0.3363
 3808TIP3    H132983   6.029   5.048   1.996 -0.2122  2.3028 -1.1895
 3808TIP3    H232984   6.047   4.998   1.854 -0.3258 -0.2298 -0.3771
 3809TIP3   OH232985   0.564   3.659   0.323 -0.0241 -0.5308 -0.3837
 3809TIP3    H132986   0.521   3.630   0.242  0.0380 -1.3178 -0.1439
 3809TIP3    H232987   0.494   3.663   0.387  0.2159 -1.6944 -0.0236
 3810TIP3   OH232988   2.613   2.984   1.439  0.1229 -0.5856  0.4512
 3810TIP3    H132989   2.664   2.903   1.433  0.3434 -0.3951 -0.2295
 3810TIP3    H232990   2.642   3.037   1.365  0.9873  0.7038  1.6381
 3811TIP3   OH232991   0.078   1.275   2.523 -0.4528 -0.1560  0.1937
 3811TIP3    H132992   0.089   1.370   2.534 -0.6141  0.0129 -0.9294
 3811TIP3    H232993   0.167   1.239   2.533 -0.3335  0.1552  0.2637
 3812TIP3   OH232994   4.543   4.541   0.521 -0.4759 -0.4029  0.3827
 3812TIP3    H132995   4.560   4.543   0.427 -0.9631  0.9498  0.2937
 3812TIP3    H232996   4.486   4.465   0.534  0.0114 -0.8917 -0.3327
 3813TIP3   OH232997   2.979   1.136   8.109 -0.0096 -0.0388 -0.2596
 3813TIP3    H132998   2.953   1.104   8.022  1.5523 -0.2564 -0.6694
 3813TIP3    H232999   2.968   1.231   8.103  0.2266 -0.0384 -0.7541
 3814TIP3   OH233000   3.742   4.814   8.652 -0.4886  0.2043 -0.2284
 3814TIP3    H133001   3.712   4.731   8.689  2.4317 -0.1022  1.7911
 3814TIP3    H233002   3.792   4.789   8.574 -0.1369  0.0850  0.0300
 3815TIP3   OH233003   1.381   0.337   8.102 -0.9791  0.3331 -0.0453
 3815TIP3    H133004   1.382   0.377   8.189 -0.4024  1.1192 -0.4061
 3815TIP3    H233005   1.354   0.407   8.043  0.4513  0.3214 -0.7449
 3816TIP3   OH233006   0.458   5.121   8.540  0.3649  0.6714  0.0921
 3816TIP3    H133007   0.404   5.086   8.611  0.9791  0.1920  0.3320
 3816TIP3    H233008   0.534   5.157   8.585  0.4287  0.9936 -0.2760
 3817TIP3   OH233009   0.228   5.084   0.296 -0.0673 -0.2844 -0.5070
 3817TIP3    H133010   0.268   4.998   0.289 -0.0441 -0.2418 -0.9032
 3817TIP3    H233011   0.300   5.141   0.326  0.3793 -0.0622 -1.9198
 3818TIP3   OH233012   1.138   1.017   1.769  0.3085 -0.0597  0.7408
 3818TIP3    H133013   1.115   1.106   1.797  1.1359  0.4557 -0.1264
 3818TIP3    H233014   1.140   0.965   1.849 -1.2526  0.4542  1.1391
 3819TIP3   OH233015   0.516   0.719   8.704  0.6953 -0.0701 -0.9786
 3819TIP3    H133016   0.496   0.793   8.761  1.6247 -0.8200  0.3822
 3819TIP3    H233017   0.431   0.678   8.686  0.4964 -0.6779  1.1222
 3820TIP3   OH233018   4.194   3.451   0.887  0.7215 -0.7189  0.2441
 3820TIP3    H133019   4.135   3.509   0.839  0.2693 -2.1077 -0.9620
 3820TIP3    H233020   4.282   3.481   0.863  0.5893  1.3380  2.0174
 3821TIP3   OH233021   4.799   6.369   0.036 -0.0861 -0.8706 -0.5799
 3821TIP3    H133022   4.797   6.437  -0.032  3.2830 -0.0360 -0.0191
 3821TIP3    H233023   4.874   6.315   0.013 -0.5275 -2.2449  1.0162
 3822TIP3   OH233024   0.947   2.816   2.740 -0.1541 -0.0608 -0.0403
 3822TIP3    H133025   1.042   2.823   2.750 -0.2970  0.3054  1.1126
 3822TIP3    H233026   0.911   2.865   2.813 -1.2369 -0.6362 -0.1717
 3823TIP3   OH233027   4.623   3.505   0.372 -0.7394  0.8867  0.3731
 3823TIP3    H133028   4.694   3.522   0.433  0.1843 -0.8491 -0.1614
 3823TIP3    H233029   4.655   3.540   0.288 -0.3903 -0.1153  0.0787
 3824TIP3   OH233030   4.884   3.331   1.253 -0.1594  0.2090  0.5853
 3824TIP3    H133031   4.919   3.365   1.170  0.2940 -0.4877  0.4753
 3824TIP3    H233032   4.859   3.409   1.302  0.0494  0.6570  0.0003
 3825TIP3   OH233033   1.204   4.203   0.075 -0.1069 -0.3226  0.6549
 3825TIP3    H133034   1.173   4.200  -0.016 -0.4667  0.4405  0.7482
 3825TIP3    H233035   1.298   4.220   0.067 -0.2264  0.2484  0.4325
 3826TIP3   OH233036   3.439   4.224   0.325 -0.4862  0.1998  0.0389
 3826TIP3    H133037   3.517   4.278   0.311 -1.3896  1.9015  1.2053
 3826TIP3    H233038   3.425   4.181   0.240  2.1030 -0.7648 -0.0080
 3827TIP3   OH233039   6.360   5.711   0.284 -0.2953  0.3195  0.2596
 3827TIP3    H133040   6.449   5.686   0.308  0.1708  0.2820 -1.3998
 3827TIP3    H233041   6.366   5.805   0.267 -0.6026  0.3338  0.2268
 3828TIP3   OH233042   4.624   6.108   2.122  0.4912 -0.6526  0.1016
 3828TIP3    H133043   4.635   6.198   2.152 -0.7287 -0.0342 -1.2240
 3828TIP3    H233044   4.542   6.079   2.162  1.3827 -1.5719  1.3588
 3829TIP3   OH233045   5.547   4.646   7.923 -0.2942  0.0647  0.9033
 3829TIP3    H133046   5.548   4.728   7.874  0.5689 -0.5354 -0.1234
 3829TIP3    H233047   5.537   4.673   8.014  0.1151  1.3187  0.5993
 3830TIP3   OH233048   1.835   2.959   2.475 -0.1152 -0.4822 -0.1919
 3830TIP3    H133049   1.904   2.955   2.541  1.7512 -0.4891 -2.0557
 3830TIP3    H233050   1.776   3.028   2.507  1.4599  0.4706  0.7937
 3831TIP3   OH233051   6.460   5.152   0.185 -0.1536  0.1696 -0.8807
 3831TIP3    H133052   6.370   5.135   0.210  0.1701 -1.4760 -0.7469
 3831TIP3    H233053   6.462   5.138   0.090  0.3247 -1.6866 -0.6342
 3832TIP3   OH233054   3.258   1.362   2.955  0.1842  0.2911 -0.0432
 3832TIP3    H133055   3.178   1.347   3.004 -0.6534 -0.3823 -1.5469
 3832TIP3    H233056   3.229   1.379   2.865  1.7576 -1.3929 -0.9507
 3833TIP3   OH233057   6.025   5.044   7.990 -0.5906 -0.0002  0.0959
 3833TIP3    H133058   5.940   5.000   7.987 -0.7783  0.3534  0.0841
 3833TIP3    H233059   6.029   5.092   7.907 -0.1462 -0.4417 -0.1399
 3834TIP3   OH233060   1.113   2.332   7.689 -0.4741 -0.7152  0.1209
 3834TIP3    H133061   1.049   2.345   7.620  0.7243  0.3313 -0.8362
 3834TIP3    H233062   1.168   2.261   7.657  0.7987  0.5387 -0.6009
 3835TIP3   OH233063   4.840   4.266   2.614  0.0983  0.2148 -0.0838
 3835TIP3    H133064   4.751   4.299   2.628  0.0595  0.2676 -0.4486
 3835TIP3    H233065   4.870   4.240   2.701 -0.6075 -0.6635 -0.0935
 3836TIP3   OH233066   4.001   4.370   0.553 -0.2902 -0.2578 -0.3922
 3836TIP3    H133067   4.030   4.458   0.575 -1.5911  0.1365 -0.2182
 3836TIP3    H233068   4.049   4.349   0.473  0.8602  0.1606  0.1626
 3837TIP3   OH233069   1.554   4.391   2.963 -0.7392 -0.4230 -0.2228
 3837TIP3    H133070   1.621   4.438   3.014 -0.0624 -2.6390  1.0491
 3837TIP3    H233071   1.534   4.451   2.890  2.0766  0.6677 -0.2574
 3838TIP3   OH233072   0.865   1.541   0.485  0.3005 -0.8458 -0.3964
 3838TIP3    H133073   0.828   1.628   0.478  2.1434 -0.0320 -0.6064
 3838TIP3    H233074   0.827   1.505   0.565 -0.5684  0.0838 -0.3730
 3839TIP3   OH233075   2.344   2.404   1.327  0.0644  0.1756  0.2381
 3839TIP3    H133076   2.349   2.340   1.398 -0.8730 -0.8687 -0.5958
 3839TIP3    H233077   2.358   2.353   1.248 -3.8366  0.3269 -0.7304
 3840TIP3   OH233078   1.040   1.842   1.266  0.5203 -0.1895  0.3876
 3840TIP3    H133079   1.061   1.936   1.270  0.4368 -0.1906  0.8628
 3840TIP3    H233080   1.090   1.810   1.191 -0.3061  0.4540 -0.4660
 3841TIP3   OH233081   3.256   0.059   2.650  0.0407 -0.2344  0.3663
 3841TIP3    H133082   3.259   0.097   2.562  2.2716  0.2327  0.5997
 3841TIP3    H233083   3.336   0.007   2.657 -0.1501 -0.3577  2.0889
 3842TIP3   OH233084   1.609   5.286   8.148  0.3721  0.1345  0.2658
 3842TIP3    H133085   1.570   5.323   8.068  1.5604 -0.9526 -0.8596
 3842TIP3    H233086   1.663   5.214   8.117 -0.0507 -1.0775  2.1897
 3843TIP3   OH233087   2.572   3.383   2.940  0.0359  0.2534 -0.3126
 3843TIP3    H133088   2.556   3.468   2.983 -1.4066 -0.1360 -0.0175
 3843TIP3    H233089   2.644   3.344   2.990  0.0790  0.9051  0.1462
 3844TIP3   OH233090   2.418   3.776   0.729 -0.1992 -0.2251 -0.5740
 3844TIP3    H133091   2.449   3.710   0.791 -0.4298 -1.8774 -2.1308
 3844TIP3    H233092   2.344   3.735   0.685 -0.8437  1.3831 -1.0731
 3845TIP3   OH233093   6.229   3.869   7.991  0.2575 -0.2169 -0.2587
 3845TIP3    H133094   6.159   3.924   7.958 -0.3506 -0.5862  0.3760
 3845TIP3    H233095   6.231   3.794   7.931 -2.3666 -2.0276  1.6745
 3846TIP3   OH233096   2.385   4.510   7.783  0.1994 -0.5945  0.0090
 3846TIP3    H133097   2.476   4.482   7.769  0.4521 -0.7198  1.6543
 3846TIP3    H233098   2.375   4.589   7.730  1.5858 -0.0228  0.5597
 3847TIP3   OH233099   0.662   0.763   0.113  0.1244  0.6338 -0.5918
 3847TIP3    H133100   0.611   0.832   0.155  0.5505  1.1459 -0.9067
 3847TIP3    H233101   0.727   0.738   0.178 -1.2196 -0.8411  0.2652
 3848TIP3   OH233102   0.176   3.152   1.917 -0.3124  0.2621 -0.0834
 3848TIP3    H133103   0.164   3.242   1.886 -0.3241  0.2891  0.0003
 3848TIP3    H233104   0.224   3.109   1.846 -0.0737  0.4050 -0.0094
 3849TIP3   OH233105   5.509   3.341   1.360  0.5244  0.0450 -0.6637
 3849TIP3    H133106   5.563   3.262   1.363 -0.2914 -0.5724 -1.5728
 3849TIP3    H233107   5.429   3.313   1.316 -0.2033  1.1380 -0.0763
 3850TIP3   OH233108   2.740   4.129   0.537  0.3170  0.4443 -0.8483
 3850TIP3    H133109   2.836   4.125   0.533  0.4148  0.8300  0.5056
 3850TIP3    H233110   2.714   4.042   0.568  0.3765  0.8521  0.4241
 3851TIP3   OH233111   4.024   0.142   2.498  0.1028  0.5702 -0.4840
 3851TIP3    H133112   4.016   0.075   2.431  0.3227  0.1026 -0.0487
 3851TIP3    H233113   4.090   0.202   2.464  1.0970 -0.3153 -0.1536
 3852TIP3   OH233114   2.328   1.460   2.250 -0.1796 -0.1724 -0.1769
 3852TIP3    H133115   2.331   1.547   2.291  0.2796 -0.3337  0.1272
 3852TIP3    H233116   2.417   1.426   2.256 -0.7957 -1.6057  1.7374
 3853TIP3   OH233117   4.703   1.716   3.227 -0.2900 -0.1575  0.9225
 3853TIP3    H133118   4.654   1.768   3.291  0.9971  1.1224  0.9283
 3853TIP3    H233119   4.705   1.628   3.264 -1.1826  0.1414  1.7125
 3854TIP3   OH233120   1.473   6.331   3.329 -0.4170  0.5825  0.2298
 3854TIP3    H133121   1.517   6.281   3.397 -2.1343  1.9770  2.5350
 3854TIP3    H233122   1.414   6.268   3.288  1.4535 -0.5541 -0.8551
 3855TIP3   OH233123   2.548   5.770   0.246  0.0534 -0.0607 -0.0123
 3855TIP3    H133124   2.489   5.715   0.298 -1.0013  1.3019  0.2943
 3855TIP3    H233125   2.585   5.830   0.310 -2.8289  3.0290 -0.9670
 3856TIP3   OH233126   4.253   3.001   0.258 -0.7552  0.5242  0.0943
 3856TIP3    H133127   4.157   2.997   0.254 -0.7713  1.6156 -1.3788
 3856TIP3    H233128   4.275   3.084   0.216  0.8520  0.2824  0.4048
 3857TIP3   OH233129   4.203   4.749   0.859  0.0622  0.3983 -0.3203
 3857TIP3    H133130   4.284   4.799   0.873 -0.6469  1.5004 -0.0351
 3857TIP3    H233131   4.135   4.803   0.899 -0.6748 -1.0467  0.4202
 3858TIP3   OH233132   2.587   0.310   8.051  0.8893 -0.2335  0.0561
 3858TIP3    H133133   2.635   0.332   7.971  0.5879 -0.0467 -0.0743
 3858TIP3    H233134   2.633   0.357   8.120  1.3529 -0.6574  0.0457
 3859TIP3   OH233135   4.249   2.380   7.844 -0.3073  0.3028  0.2027
 3859TIP3    H133136   4.218   2.328   7.918 -2.5510 -0.0771 -0.9354
 3859TIP3    H233137   4.175   2.436   7.820  0.6666  1.0599 -1.2003
 3860TIP3   OH233138   5.410   2.931   2.138 -0.1576  0.3267  0.4894
 3860TIP3    H133139   5.333   2.914   2.084 -1.0107  1.6849  1.2127
 3860TIP3    H233140   5.483   2.937   2.076 -1.0613  1.5474 -0.4914
 3861TIP3   OH233141   0.882   6.302   8.142 -0.5118 -0.4776  0.4580
 3861TIP3    H133142   0.891   6.238   8.213 -0.9985 -0.0560  0.9081
 3861TIP3    H233143   0.947   6.369   8.163  1.3287 -1.6873 -1.0097
 3862TIP3   OH233144   0.533   3.264   1.322 -0.5955  0.1870 -0.2682
 3862TIP3    H133145   0.594   3.219   1.381 -2.4149 -2.2411 -0.0770
 3862TIP3    H233146   0.575   3.348   1.305  2.5545 -1.1003  0.2519
 3863TIP3   OH233147   0.760   5.595   8.615 -0.1267  0.0994  0.0610
 3863TIP3    H133148   0.768   5.661   8.546 -0.4203 -0.8477 -0.9077
 3863TIP3    H233149   0.701   5.529   8.578  0.7797 -1.1062  0.6836
 3864TIP3   OH233150   4.516   2.304   2.860  0.1981  0.1736 -0.6371
 3864TIP3    H133151   4.456   2.231   2.841 -1.2891  0.9496  0.7396
 3864TIP3    H233152   4.577   2.268   2.925  1.6255 -0.7714 -2.4143
 3865TIP3   OH233153   3.233   0.583   0.990  0.2080  0.0168  0.0317
 3865TIP3    H133154   3.311   0.607   1.040 -3.1395  3.6539  4.5155
 3865TIP3    H233155   3.186   0.523   1.048 -2.5542  2.1141  0.1776
 3866TIP3   OH233156   3.628   6.326   0.680  0.3901 -0.1980 -0.3367
 3866TIP3    H133157   3.583   6.395   0.729 -0.4258 -0.5823 -0.5258
 3866TIP3    H233158   3.586   6.245   0.709  1.0411 -0.5843 -0.4415
 3867TIP3   OH233159   3.835   2.264   3.150  0.2984  0.1500 -0.0231
 3867TIP3    H133160   3.775   2.222   3.212  2.2408 -1.9586  0.5752
 3867TIP3    H233161   3.787   2.265   3.067  0.0020 -3.2233 -0.0287
 3868TIP3   OH233162   4.944   2.239   8.151  0.6011 -0.0950 -0.4329
 3868TIP3    H133163   4.855   2.236   8.186  0.1678 -1.1769 -1.5546
 3868TIP3    H233164   4.948   2.320   8.100  0.6216  0.4959  0.4786
 3869TIP3   OH233165   4.239   3.643   1.148  0.2315  0.1079  0.0396
 3869TIP3    H133166   4.146   3.621   1.156  0.1597  0.6773  0.9062
 3869TIP3    H233167   4.248   3.676   1.059 -0.9974  2.7002  0.7943
 3870TIP3   OH233168   5.586   6.235   7.503  1.0855 -0.0308 -0.3785
 3870TIP3    H133169   5.590   6.156   7.557 -1.0904 -0.9592 -1.4378
 3870TIP3    H233170   5.499   6.271   7.521  0.6252  0.0821 -2.5629
 3871TIP3   OH233171   0.520   0.053   0.257 -0.0846 -0.0397 -0.1798
 3871TIP3    H133172   0.538   0.097   0.174  0.1170 -0.8014 -0.5516
 3871TIP3    H233173   0.549  -0.038   0.243 -0.6326 -0.3328  0.5122
 3872TIP3   OH233174   6.359   0.486   2.799 -0.4252  0.4208  0.1441
 3872TIP3    H133175   6.319   0.504   2.884  0.0561 -0.6554  0.6202
 3872TIP3    H233176   6.301   0.422   2.758  0.1120 -0.1693  0.2934
 3873TIP3   OH233177   3.098   5.154   1.711  0.5312 -0.3314  0.5901
 3873TIP3    H133178   3.156   5.105   1.769 -0.2532 -0.5767  1.1957
 3873TIP3    H233179   3.014   5.157   1.758 -0.4422 -1.4115 -0.9460
 3874TIP3   OH233180   4.039   3.788   1.794  0.1220 -0.1561  0.0447
 3874TIP3    H133181   4.049   3.741   1.711 -0.8693 -0.7241  0.2295
 3874TIP3    H233182   4.101   3.747   1.853  0.1075 -0.4327 -0.1313
 3875TIP3   OH233183   5.772   5.797   2.718  0.2100  0.0503  0.3010
 3875TIP3    H133184   5.843   5.734   2.720  0.9433  0.7668 -1.2735
 3875TIP3    H233185   5.696   5.747   2.688  0.2712 -0.5034  1.0469
 3876TIP3   OH233186   3.848   2.896   1.105  0.5781 -0.3304  0.1076
 3876TIP3    H133187   3.845   2.805   1.134  0.6037 -0.3694 -0.0127
 3876TIP3    H233188   3.796   2.897   1.025 -0.0087 -0.1004  0.4866
 3877TIP3   OH233189   6.770   5.373   0.181 -0.4692 -0.2169  0.2443
 3877TIP3    H133190   6.851   5.424   0.179  0.5918 -1.7909  0.7086
 3877TIP3    H233191   6.793   5.290   0.139 -1.5735 -1.0442  1.1954
 3878TIP3   OH233192   1.224   2.222   7.956  0.9233  0.4273 -0.4938
 3878TIP3    H133193   1.129   2.227   7.967  0.7968 -0.7992 -0.8328
 3878TIP3    H233194   1.237   2.210   7.862  1.2929 -1.0692 -0.2827
 3879TIP3   OH233195   2.494   5.714   2.145  0.5348  0.4129 -0.4629
 3879TIP3    H133196   2.470   5.778   2.212  1.8209  1.8142 -1.2515
 3879TIP3    H233197   2.585   5.736   2.123  0.3333 -0.3479 -2.2471
 3880TIP3   OH233198   1.764   0.727   7.613 -0.2674  0.7125  0.0458
 3880TIP3    H133199   1.686   0.696   7.566 -0.9092  0.4336  1.2597
 3880TIP3    H233200   1.772   0.819   7.589 -2.7571  1.6157  2.1727
 3881TIP3   OH233201   0.159   1.144   1.074 -0.5538  0.0887 -0.0793
 3881TIP3    H133202   0.082   1.114   1.025  0.1742 -0.5227 -0.8762
 3881TIP3    H233203   0.201   1.208   1.017  0.0468 -0.2817 -0.0663
 3882TIP3   OH233204   4.220   2.467   2.427 -1.3598 -0.0891  0.7698
 3882TIP3    H133205   4.126   2.471   2.408 -1.2568  2.6937  0.4114
 3882TIP3    H233206   4.245   2.558   2.440  1.3022 -0.7768  0.9063
 3883TIP3   OH233207   4.676   5.003   0.983  0.5092  0.5550  0.1990
 3883TIP3    H133208   4.689   5.024   1.076  0.2415  0.0274  0.3617
 3883TIP3    H233209   4.747   5.048   0.938  0.2106  1.4395  0.5768
 3884TIP3   OH233210   3.484   0.698   0.813 -0.1497 -0.3855  0.4408
 3884TIP3    H133211   3.452   0.787   0.830 -0.9114 -0.9950  2.3938
 3884TIP3    H233212   3.406   0.649   0.789 -0.2976 -1.2040  2.3991
 3885TIP3   OH233213   4.035   3.022   2.965  0.4565  0.0368 -0.3912
 3885TIP3    H133214   4.013   3.007   3.057  2.7299 -1.1148  0.0353
 3885TIP3    H233215   3.987   2.954   2.917 -1.5592  1.2796 -0.2305
 3886TIP3   OH233216   6.022   5.335   7.891 -0.0635  0.1058  0.1760
 3886TIP3    H133217   6.008   5.302   7.803  0.3989  1.1093 -0.2794
 3886TIP3    H233218   5.952   5.400   7.904 -1.3466 -1.3921  1.2908
 3887TIP3   OH233219   5.359   1.067   3.669 -0.4375  0.1646  0.3337
 3887TIP3    H133220   5.278   1.106   3.704 -0.0848  2.2799 -0.9678
 3887TIP3    H233221   5.429   1.115   3.712  0.0548  0.1386 -0.4165
 3888TIP3   OH233222   1.014   4.163   8.542  0.2594  0.0360  0.0081
 3888TIP3    H133223   1.063   4.225   8.488  1.8539  2.2906  3.6450
 3888TIP3    H233224   0.933   4.208   8.565 -0.8410 -1.2709 -1.1540
 3889TIP3   OH233225   6.691   5.056   2.064  0.0828 -0.8438  0.0191
 3889TIP3    H133226   6.675   5.039   1.971  0.0122 -0.6765 -0.0001
 3889TIP3    H233227   6.604   5.071   2.100  0.2657  1.5003 -0.3674
 3890TIP3   OH233228   0.078   2.069   0.198 -0.6794 -0.2807  0.2093
 3890TIP3    H133229   0.011   2.105   0.257  0.2917  0.9336  0.6238
 3890TIP3    H233230   0.142   2.029   0.257  0.8958  1.9648  0.1333
 3891TIP3   OH233231   1.869   6.191   8.907 -0.1309  0.3858  0.0978
 3891TIP3    H133232   1.854   6.160   8.818  1.3914  0.3802 -0.1840
 3891TIP3    H233233   1.782   6.205   8.943 -0.8836 -2.3490 -0.4184
 3892TIP3   OH233234   3.029   6.494   2.873 -0.9958 -0.3212  0.0243
 3892TIP3    H133235   3.040   6.588   2.887  0.1296 -0.3218 -0.7422
 3892TIP3    H233236   3.108   6.467   2.827 -0.7255 -1.8888  1.3151
 3893TIP3   OH233237   4.556   5.273   1.787  0.5043  0.1658  0.1579
 3893TIP3    H133238   4.645   5.301   1.809  0.2181  0.8992  0.4156
 3893TIP3    H233239   4.553   5.275   1.692  1.3773 -1.8337  0.0611
 3894TIP3   OH233240   5.497   0.279   1.025 -0.2834 -0.2947 -0.1921
 3894TIP3    H133241   5.591   0.260   1.023 -0.4758 -2.0077  2.2625
 3894TIP3    H233242   5.470   0.278   0.933  1.6810 -2.1139 -0.8237
 3895TIP3   OH233243   3.618   3.464   1.401 -0.0126 -0.4858 -0.9636
 3895TIP3    H133244   3.588   3.553   1.383  1.3178  0.6862  1.9497
 3895TIP3    H233245   3.658   3.435   1.319  1.2856  2.3963 -1.4726
 3896TIP3   OH233246   2.100   1.602   0.708  0.3139 -0.5627  0.2200
 3896TIP3    H133247   2.117   1.599   0.802  2.3190  0.1956 -0.0778
 3896TIP3    H233248   2.146   1.527   0.673 -1.0618 -1.2880 -0.1119
 3897TIP3   OH233249   1.416   2.415   1.902 -0.1500 -0.0832  0.3619
 3897TIP3    H133250   1.372   2.490   1.941  0.1079 -0.3964  1.2709
 3897TIP3    H233251   1.510   2.432   1.917  0.0971  0.6974 -1.7527
 3898TIP3   OH233252   4.159   1.783   2.317 -1.3055 -0.2041 -0.6117
 3898TIP3    H133253   4.076   1.807   2.276 -0.8223  2.9852  0.0176
 3898TIP3    H233254   4.221   1.778   2.245 -1.0904  2.3312 -0.6701
 3899TIP3   OH233255   1.358   1.064   0.112 -0.2825 -0.1290 -0.1563
 3899TIP3    H133256   1.329   1.119   0.185  0.7929  2.0530 -1.2883
 3899TIP3    H233257   1.286   1.002   0.099 -1.2340  0.5325  1.6360
 3900TIP3   OH233258   4.279   2.006   2.424  0.2204  0.0975  0.1395
 3900TIP3    H133259   4.234   1.924   2.407 -0.4605  0.3494  0.6726
 3900TIP3    H233260   4.213   2.062   2.465  0.4049  1.2454 -1.0533
 3901TIP3   OH233261   2.702   2.237   8.382 -0.1571 -0.3207 -0.3633
 3901TIP3    H133262   2.618   2.198   8.403  0.4693 -2.2151 -1.1725
 3901TIP3    H233263   2.682   2.300   8.313 -0.7344 -2.0135 -1.8200
 3902TIP3   OH233264   0.902   6.667   1.670 -0.2833  0.0993  0.0600
 3902TIP3    H133265   0.817   6.630   1.694 -1.4254  3.5861  2.1297
 3902TIP3    H233266   0.881   6.741   1.613  1.0353  2.4128  2.3781
 3903TIP3   OH233267   0.467   5.036   8.010 -0.1316 -0.2242  0.2808
 3903TIP3    H133268   0.394   5.097   8.000 -0.8695 -0.9770  1.0089
 3903TIP3    H233269   0.469   5.015   8.103  1.3553  0.1845  0.3670
 3904TIP3   OH233270   2.884   2.918   2.331  0.1370  0.2688 -0.8543
 3904TIP3    H133271   2.855   2.886   2.246 -0.6096 -0.5830 -0.3034
 3904TIP3    H233272   2.956   2.860   2.356 -1.5857 -1.4878  0.4019
 3905TIP3   OH233273   1.711   5.118   8.450 -0.7071 -0.3623  0.2909
 3905TIP3    H133274   1.759   5.117   8.367  0.1442  1.0897  0.7363
 3905TIP3    H233275   1.622   5.142   8.425 -0.8758 -1.5541 -0.3636
 3906TIP3   OH233276   4.037   3.411   7.900  0.1298 -0.1741 -0.1439
 3906TIP3    H133277   4.095   3.480   7.932 -0.5569  0.5090 -0.3576
 3906TIP3    H233278   3.951   3.452   7.893 -0.3254 -1.0944 -0.1193
 3907TIP3   OH233279   0.122   3.725   3.245 -0.5558 -0.1846 -0.4940
 3907TIP3    H133280   0.057   3.787   3.277 -0.0135  0.4027 -0.4955
 3907TIP3    H233281   0.144   3.757   3.157  0.3720  0.1404 -0.1522
 3908TIP3   OH233282   0.712   5.808   1.974  0.6669  0.1476  0.8383
 3908TIP3    H133283   0.634   5.755   1.986 -1.8523  2.7144 -2.1688
 3908TIP3    H233284   0.735   5.838   2.062 -2.9800  0.8038  1.7218
 3909TIP3   OH233285   2.566   4.356   0.559  0.1559  0.3048 -0.5345
 3909TIP3    H133286   2.645   4.305   0.545 -0.3594 -0.2626 -1.4854
 3909TIP3    H233287   2.540   4.337   0.650  1.7493  1.4476  0.1973
 3910TIP3   OH233288   0.704   4.983   0.117 -0.9198 -0.6954 -0.1903
 3910TIP3    H133289   0.738   5.051   0.175 -1.3574 -1.2386  0.7223
 3910TIP3    H233290   0.774   4.970   0.053  0.0208 -0.7964  0.8189
 3911TIP3   OH233291   0.127   5.888   2.820 -0.0762  1.0352  0.0738
 3911TIP3    H133292   0.138   5.964   2.764  1.5628 -0.2839 -1.5554
 3911TIP3    H233293   0.205   5.888   2.876  0.0237  0.4997 -0.0532
 3912TIP3   OH233294   5.092   3.133   8.424  0.3728  0.0401  0.5706
 3912TIP3    H133295   5.097   3.227   8.440 -1.2843 -0.0948  2.2868
 3912TIP3    H233296   5.041   3.125   8.343  0.0112  0.6234  0.7359
 3913TIP3   OH233297   3.005   1.485   0.215  0.3935 -0.3356 -0.7078
 3913TIP3    H133298   3.057   1.479   0.296  0.5518 -2.6241 -0.9147
 3913TIP3    H233299   2.940   1.553   0.234  1.2653  0.1352  0.8326
 3914TIP3   OH233300   0.760   3.987   2.665 -0.2262 -0.1645  0.2921
 3914TIP3    H133301   0.688   4.050   2.672 -0.0894  0.1217 -0.7163
 3914TIP3    H233302   0.830   4.036   2.621  0.6939 -0.3529  1.5055
 3915TIP3   OH233303   1.943   3.028   0.156 -0.4100  0.0426 -0.4098
 3915TIP3    H133304   2.027   3.011   0.200 -0.7682 -0.8881 -0.0631
 3915TIP3    H233305   1.955   2.994   0.068 -0.6689 -0.7791 -0.1319
 3916TIP3   OH233306   5.655   1.194   1.153  0.5966 -0.2117  0.1968
 3916TIP3    H133307   5.733   1.194   1.098  0.4976  1.7930 -0.0139
 3916TIP3    H233308   5.582   1.189   1.092  0.5133 -0.3630  0.3053
 3917TIP3   OH233309   4.863   2.075   1.311 -0.1086 -0.9338  0.7911
 3917TIP3    H133310   4.806   2.125   1.370  0.6360  0.8270  0.1000
 3917TIP3    H233311   4.940   2.054   1.363  0.3158  0.1506  0.6187
 3918TIP3   OH233312   3.308   0.334   1.143  0.5421  0.5765  0.0648
 3918TIP3    H133313   3.385   0.288   1.176 -0.7253 -1.2133  0.7326
 3918TIP3    H233314   3.235   0.298   1.194 -0.9766  0.7942 -1.8252
 3919TIP3   OH233315   2.083   0.496   0.018  0.0978 -0.3086 -0.4609
 3919TIP3    H133316   2.031   0.576   0.009 -1.1645 -0.9100  1.0451
 3919TIP3    H233317   2.174   0.527   0.018 -0.3313  1.0312 -0.6998
 3920TIP3   OH233318   1.570   1.565   2.425 -0.2689  0.1341  0.1324
 3920TIP3    H133319   1.655   1.528   2.400 -0.1640  0.2909  0.2610
 3920TIP3    H233320   1.507   1.513   2.376 -0.1349 -0.3776  0.4918
 3921TIP3   OH233321   6.747   1.023   8.421  0.0526  0.3404 -0.2592
 3921TIP3    H133322   6.682   1.056   8.483  0.8870  0.8898  0.3434
 3921TIP3    H233323   6.701   1.021   8.337 -1.0020 -0.1288  0.3134
 3922TIP3   OH233324   4.555   1.507   0.339  0.4084 -0.1611  0.1097
 3922TIP3    H133325   4.499   1.445   0.386  1.5265 -1.9255 -0.7947
 3922TIP3    H233326   4.585   1.460   0.262  2.1742  1.1392 -0.0651
 3923TIP3   OH233327   0.834   6.764   8.865  0.1987  0.5060  0.4420
 3923TIP3    H133328   0.774   6.791   8.935 -0.2460 -0.4984  0.4631
 3923TIP3    H233329   0.921   6.776   8.903  0.0119 -3.2001  2.5186
 3924TIP3   OH233330   2.352   6.084   0.488  0.4721 -0.2753 -0.4847
 3924TIP3    H133331   2.330   6.161   0.436 -0.8793 -0.8456 -0.8019
 3924TIP3    H233332   2.347   6.011   0.427 -1.9997 -1.0804  0.5077
 3925TIP3   OH233333   5.394   5.616   0.208 -0.0427  0.2228  0.0526
 3925TIP3    H133334   5.462   5.656   0.153 -0.2674  1.7541  0.8458
 3925TIP3    H233335   5.377   5.531   0.166  0.8288  0.7175 -1.3839
 3926TIP3   OH233336   6.269   1.139   8.727 -0.4594 -0.1309  0.6224
 3926TIP3    H133337   6.314   1.222   8.740 -0.1319 -0.1304 -0.3735
 3926TIP3    H233338   6.221   1.124   8.808  0.3272  0.4968  1.2203
 3927TIP3   OH233339   5.965   0.565   0.876 -0.0799 -0.8204 -0.5117
 3927TIP3    H133340   5.994   0.533   0.791  0.0858 -0.2534 -0.6752
 3927TIP3    H233341   5.870   0.553   0.876  0.1237 -2.7433  0.0464
 3928TIP3   OH233342   5.731   3.523   8.908  0.6471 -0.2149  0.4778
 3928TIP3    H133343   5.689   3.568   8.834 -1.0892 -2.5710 -0.1236
 3928TIP3    H233344   5.762   3.593   8.965 -2.3959  1.7781 -0.0672
 3929TIP3   OH233345   5.191   2.796   2.441  0.0133  0.3327  0.5708
 3929TIP3    H133346   5.287   2.796   2.443  0.0706  2.2054 -0.3033
 3929TIP3    H233347   5.169   2.773   2.350 -0.3051  1.4014  0.3626
 3930TIP3   OH233348   2.059   4.388   0.353  0.4829 -1.1784  0.1526
 3930TIP3    H133349   2.112   4.408   0.430 -1.0922 -0.3492  1.0791
 3930TIP3    H233350   2.119   4.399   0.279  1.4182  0.5753  1.0989
 3931TIP3   OH233351   5.153   1.582   1.791 -0.2083 -0.4842 -0.4601
 3931TIP3    H133352   5.188   1.566   1.704  0.3180  1.1693 -0.5804
 3931TIP3    H233353   5.196   1.516   1.846 -0.2017 -1.2477 -1.3429
 3932TIP3   OH233354   2.066   2.180   1.117 -0.0099 -0.0514  0.2518
 3932TIP3    H133355   2.124   2.143   1.051  0.9612  0.7538  0.6389
 3932TIP3    H233356   2.069   2.118   1.190  0.9117  0.3378  0.5468
 3933TIP3   OH233357   5.214   0.895   2.078  0.0558 -0.7409  0.3270
 3933TIP3    H133358   5.178   0.969   2.029  1.7191 -1.5900 -2.4309
 3933TIP3    H233359   5.147   0.826   2.070 -0.2249 -0.4674  0.3169
 3934TIP3   OH233360   1.282   6.682   8.188 -0.1027 -0.1264 -0.5263
 3934TIP3    H133361   1.331   6.718   8.114 -1.0311 -0.9167 -1.5545
 3934TIP3    H233362   1.338   6.612   8.222  0.0307 -0.1982 -0.8976
 3935TIP3   OH233363   3.074   5.128   2.381 -0.3063  0.1110  0.2063
 3935TIP3    H133364   3.062   5.222   2.373  0.1558  0.0498 -1.5725
 3935TIP3    H233365   2.993   5.096   2.421 -0.8782  1.1395 -0.1028
 3936TIP3   OH233366   5.739   1.004   8.329  0.5241  0.3030 -0.0470
 3936TIP3    H133367   5.746   0.987   8.423 -2.5760  1.3680  0.4924
 3936TIP3    H233368   5.646   1.025   8.315  0.7952 -0.1780 -3.4272
 3937TIP3   OH233369   4.024   6.125   8.392  0.6917 -0.0541 -0.2437
 3937TIP3    H133370   3.935   6.161   8.398  0.3689 -0.5396 -1.7576
 3937TIP3    H233371   4.017   6.039   8.432  0.7885  0.3755  0.7399
 3938TIP3   OH233372   2.377   4.931   8.397 -0.5285 -0.6701 -0.2501
 3938TIP3    H133373   2.348   5.005   8.343 -4.2483 -0.2261  1.9657
 3938TIP3    H233374   2.469   4.951   8.417 -1.4329  3.7481  0.6233
 3939TIP3   OH233375   4.308   4.858   3.687 -0.3147  0.3273 -0.3278
 3939TIP3    H133376   4.324   4.807   3.608 -1.1223  0.8149 -0.8217
 3939TIP3    H233377   4.295   4.948   3.656 -0.1375  0.6185  0.4061
 3940TIP3   OH233378   5.589   3.666   8.713  0.7184 -0.1746  0.0271
 3940TIP3    H133379   5.536   3.592   8.682  0.8947 -0.0338 -0.6246
 3940TIP3    H233380   5.540   3.743   8.684  0.3453 -0.0212  1.0234
 3941TIP3   OH233381   1.322   1.129   0.709 -0.4342 -0.2555 -0.4177
 3941TIP3    H133382   1.371   1.056   0.747  0.7201  1.3473  1.3665
 3941TIP3    H233383   1.338   1.202   0.769 -4.0787  0.7008 -0.4118
 3942TIP3   OH233384   0.645   1.251   0.276  0.2062 -0.2537 -0.5781
 3942TIP3    H133385   0.591   1.321   0.239  0.6655  0.8848  0.7946
 3942TIP3    H233386   0.604   1.232   0.360 -1.0095 -3.0045 -1.6937
 3943TIP3   OH233387   2.884   5.275   8.338 -0.4433 -0.1696 -0.0766
 3943TIP3    H133388   2.790   5.281   8.356 -0.5320  1.8952 -0.8948
 3943TIP3    H233389   2.916   5.364   8.352  1.1839 -0.5866 -0.9007
 3944TIP3   OH233390   6.143   5.366   2.475 -0.1289  0.4197 -0.2677
 3944TIP3    H133391   6.090   5.297   2.514 -0.5247  0.0329 -1.4457
 3944TIP3    H233392   6.215   5.321   2.432 -0.7049  0.6660 -1.5426
 3945TIP3   OH233393   4.100   2.089   1.202  0.4977 -0.0667 -0.0064
 3945TIP3    H133394   4.137   2.170   1.239 -1.2754  1.2212 -0.9144
 3945TIP3    H233395   4.052   2.049   1.275  0.9151 -0.0216  0.2991
 3946TIP3   OH233396   1.364   2.207   2.253 -0.2712  0.0006 -0.0756
 3946TIP3    H133397   1.419   2.283   2.266  2.4569 -1.9794  0.8373
 3946TIP3    H233398   1.330   2.186   2.340  0.4560 -0.8456  0.0115
 3947TIP3   OH233399   3.776   1.597   1.845 -0.0588  0.1345 -0.0763
 3947TIP3    H133400   3.730   1.676   1.817  0.5680  0.9925  1.2211
 3947TIP3    H233401   3.822   1.567   1.767 -0.2105  1.1192 -0.5631
 3948TIP3   OH233402   3.782   1.558   0.379 -0.1547  0.6751 -0.1046
 3948TIP3    H133403   3.718   1.511   0.326  0.0339  0.9765 -0.6087
 3948TIP3    H233404   3.789   1.644   0.337  1.6091  0.1859 -0.9107
 3949TIP3   OH233405   1.790   3.546   0.166  0.2048 -0.0626  0.4681
 3949TIP3    H133406   1.753   3.499   0.240  1.4371 -1.2236  0.3880
 3949TIP3    H233407   1.730   3.527   0.093  0.4247 -1.1442  0.5535
 3950TIP3   OH233408   1.712   3.415   1.493 -0.0926 -0.3582  0.6710
 3950TIP3    H133409   1.745   3.459   1.415  0.3855  0.2740  1.2161
 3950TIP3    H233410   1.735   3.323   1.481 -0.4827 -0.3512 -0.1670
 3951TIP3   OH233411   0.326   3.773   2.578  0.2056  0.0387 -0.3604
 3951TIP3    H133412   0.307   3.867   2.573  1.0725  0.1789 -1.2979
 3951TIP3    H233413   0.240   3.731   2.578 -0.1804  0.8105 -0.3310
 3952TIP3   OH233414   2.037   3.436   0.117  0.0638  0.7373  0.4521
 3952TIP3    H133415   1.946   3.463   0.125 -0.0505  0.0232  1.7704
 3952TIP3    H233416   2.079   3.508   0.069 -1.4797  0.3842 -1.5871
 3953TIP3   OH233417   5.837   2.036   1.256  0.0363  0.0907 -0.2817
 3953TIP3    H133418   5.792   2.082   1.186  0.3378  0.6585 -0.1085
 3953TIP3    H233419   5.821   2.089   1.334  0.7243  0.1301 -0.1576
 3954TIP3   OH233420   2.291   2.889   8.238  0.2928  0.0737  0.2890
 3954TIP3    H133421   2.344   2.966   8.260  0.2109  0.6443 -1.3509
 3954TIP3    H233422   2.204   2.925   8.220  0.7890  0.0131 -2.8042
 3955TIP3   OH233423   4.433   4.748   2.666 -0.0269  0.2674 -0.2442
 3955TIP3    H133424   4.367   4.679   2.656  1.6908 -1.4361 -0.3035
 3955TIP3    H233425   4.441   4.786   2.578  0.7542 -1.1509 -0.8159
 3956TIP3   OH233426   0.747   0.766   1.347 -0.0695  1.0375 -0.7850
 3956TIP3    H133427   0.812   0.719   1.399  0.4929  1.3081 -1.2316
 3956TIP3    H233428   0.663   0.731   1.377  0.2362  1.1481  0.2669
 3957TIP3   OH233429   5.103   2.860   0.645 -0.3961 -0.0090 -0.1091
 3957TIP3    H133430   5.108   2.768   0.671 -1.4364 -0.3072 -0.9013
 3957TIP3    H233431   5.041   2.899   0.706  1.4539  0.6626  1.4640
 3958TIP3   OH233432   0.428   2.505   2.659  0.2076  0.2138  0.1787
 3958TIP3    H133433   0.495   2.537   2.718 -0.9989 -0.0193  1.7513
 3958TIP3    H233434   0.373   2.448   2.713 -0.7743 -0.2593 -1.2423
 3959TIP3   OH233435   1.397   2.422   0.671 -0.3117 -0.0046  0.1288
 3959TIP3    H133436   1.320   2.421   0.728 -0.8198  1.2018 -0.5068
 3959TIP3    H233437   1.426   2.331   0.668 -0.3578 -0.1391  2.1908
 3960TIP3   OH233438   3.852   3.332   2.440  0.2951  0.7196 -0.0485
 3960TIP3    H133439   3.796   3.380   2.500  0.7659  2.4705 -0.9461
 3960TIP3    H233440   3.800   3.256   2.414 -0.1110  0.1851  2.1220
 3961TIP3   OH233441   1.101   3.536   2.790 -0.7356  0.3203 -0.4818
 3961TIP3    H133442   1.077   3.461   2.844  0.6610 -1.3809 -2.0970
 3961TIP3    H233443   1.081   3.510   2.701  2.1785  0.7704 -1.3736
 3962TIP3   OH233444   3.634   6.033   0.538 -0.1185 -0.3354  0.0351
 3962TIP3    H133445   3.591   5.948   0.549 -0.7763 -0.0742 -0.4294
 3962TIP3    H233446   3.695   6.020   0.465 -0.3781 -0.3565 -0.1816
 3963TIP3   OH233447   5.720   2.692   2.083 -0.5717  0.4281 -0.9670
 3963TIP3    H133448   5.732   2.786   2.091  0.1296  0.2820 -0.1124
 3963TIP3    H233449   5.778   2.655   2.149  0.3569 -0.6626 -2.3403
 3964TIP3   OH233450   1.472   3.690   0.085 -0.4584 -0.4322  0.8061
 3964TIP3    H133451   1.501   3.645   0.006  0.1763 -1.9004  1.8190
 3964TIP3    H233452   1.427   3.768   0.054 -0.5163 -1.1469 -0.9956
 3965TIP3   OH233453   1.419   1.900   8.456 -0.0832 -0.0447  0.0810
 3965TIP3    H133454   1.332   1.929   8.486 -0.5549 -0.0134 -1.2375
 3965TIP3    H233455   1.476   1.912   8.532 -0.7846  1.9740  0.3508
 3966TIP3   OH233456   3.332   6.084   2.692 -0.0512 -0.1196 -0.3540
 3966TIP3    H133457   3.298   6.043   2.772  0.3477  3.9335  2.1558
 3966TIP3    H233458   3.265   6.149   2.669  1.3384  1.0050 -1.3544
 3967TIP3   OH233459   1.857   5.081   8.797 -0.1334 -0.2604 -0.1398
 3967TIP3    H133460   1.816   5.056   8.715 -3.3281 -2.3053  1.8452
 3967TIP3    H233461   1.906   5.004   8.824  0.6564  0.2941  0.0488
 3968TIP3   OH233462   1.657   6.460   8.776  0.8161  0.1555  0.3547
 3968TIP3    H133463   1.691   6.540   8.736  0.0132 -0.6603 -2.1596
 3968TIP3    H233464   1.563   6.464   8.762  0.8683 -1.7337 -0.9915
 3969TIP3   OH233465   0.086   6.014   2.030  0.6436 -0.3072 -0.1792
 3969TIP3    H133466   0.154   6.079   2.013  0.8236 -0.7362 -1.1817
 3969TIP3    H233467   0.005   6.058   2.005  0.4252  0.5058  1.8228
 3970TIP3   OH233468   1.544   2.017   1.186 -0.0420  0.3559  0.5181
 3970TIP3    H133469   1.613   1.988   1.246 -1.7242 -0.9177  1.9555
 3970TIP3    H233470   1.492   1.938   1.169 -0.2659  0.9120 -1.8234
 3971TIP3   OH233471   1.287   5.737   7.958 -0.1357  0.0452  0.5421
 3971TIP3    H133472   1.380   5.758   7.949 -0.1957  1.0848  1.9411
 3971TIP3    H233473   1.276   5.654   7.911  1.1730  0.6683 -0.9299
 3972TIP3   OH233474   6.498   4.931   3.023 -0.1371  0.0786 -0.7512
 3972TIP3    H133475   6.407   4.945   3.051 -0.2058 -3.0734  1.0754
 3972TIP3    H233476   6.497   4.844   2.982  2.2796 -0.8044  0.8573
 3973TIP3   OH233477   2.505   5.547   3.148 -0.6810 -0.3915  0.0162
 3973TIP3    H133478   2.563   5.597   3.205  1.0309  0.7856 -2.6054
 3973TIP3    H233479   2.424   5.598   3.144 -0.7444 -0.3822  1.1595
 3974TIP3   OH233480   0.519   0.622   3.205  0.1995  0.1662  0.1991
 3974TIP3    H133481   0.428   0.594   3.198  0.5191 -0.8977  0.2091
 3974TIP3    H233482   0.568   0.559   3.153  0.6480  2.3920 -2.3396
 3975TIP3   OH233483   5.788   4.126   0.982 -0.6924  0.2575 -0.0377
 3975TIP3    H133484   5.735   4.166   1.051 -2.0239 -1.3606 -0.0551
 3975TIP3    H233485   5.821   4.200   0.931 -1.9027  1.3686  0.7276
 3976TIP3   OH233486   1.669   3.745   0.648 -0.0968 -0.3004 -0.0839
 3976TIP3    H133487   1.644   3.793   0.727 -2.0997 -1.1774 -0.1429
 3976TIP3    H233488   1.659   3.808   0.577 -0.0713 -0.0434  0.1402
 3977TIP3   OH233489   3.428   6.529   0.824 -0.5936 -0.1529  0.4924
 3977TIP3    H133490   3.340   6.544   0.790 -0.3025 -1.9541 -1.2799
 3977TIP3    H233491   3.416   6.466   0.895 -0.7006 -1.0485 -0.2959
 3978TIP3   OH233492   4.942   3.706   2.553 -0.8090 -0.0420  0.4554
 3978TIP3    H133493   4.925   3.800   2.559  1.9190  0.4552  1.9181
 3978TIP3    H233494   5.037   3.698   2.563 -0.9102 -2.9446 -0.0805
 3979TIP3   OH233495   2.569   2.893   8.517 -0.3466  0.2566  0.1247
 3979TIP3    H133496   2.549   2.950   8.443 -0.6096 -2.2396 -1.8744
 3979TIP3    H233497   2.488   2.846   8.534  0.6019 -1.6431 -0.3211
 3980TIP3   OH233498   4.825   0.112   8.729  0.2653  0.5696 -0.1333
 3980TIP3    H133499   4.765   0.090   8.658 -2.5287  1.1021  1.8880
 3980TIP3    H233500   4.830   0.208   8.727  1.7256  0.5114 -0.7239
 3981TIP3   OH233501   6.561   3.642   1.615 -0.0563  0.3654  0.3310
 3981TIP3    H133502   6.514   3.723   1.595  0.0544  0.1840 -0.7114
 3981TIP3    H233503   6.647   3.671   1.646  0.8045  0.6597 -2.1357
 3982TIP3   OH233504   3.702   0.436   1.062 -0.0735  0.2799 -0.0964
 3982TIP3    H133505   3.784   0.447   1.110 -1.7988  2.0985  2.7007
 3982TIP3    H233506   3.696   0.514   1.006 -1.2336  1.7753  2.0008
 3983TIP3   OH233507   1.748   2.172   8.271  0.1323  0.4643  0.0934
 3983TIP3    H133508   1.768   2.246   8.214  1.5896  0.5438  0.6483
 3983TIP3    H233509   1.660   2.188   8.304  0.2573  1.7074 -0.1592
 3984TIP3   OH233510   1.043   1.253   1.847  0.3424  0.4812  0.2861
 3984TIP3    H133511   0.951   1.265   1.871  0.3731  3.1032 -0.5577
 3984TIP3    H233512   1.084   1.338   1.865  2.6370 -0.6321  0.6748
 3985TIP3   OH233513   6.627   1.696   1.000 -0.5555  0.0002 -0.0855
 3985TIP3    H133514   6.700   1.663   0.948 -1.8656 -2.7290 -0.3244
 3985TIP3    H233515   6.584   1.760   0.943  1.2316  1.2416 -0.1499
 3986TIP3   OH233516   2.062   4.964   8.383  0.5249  0.0320 -0.5588
 3986TIP3    H133517   2.026   4.932   8.466  0.2602 -0.5286 -0.8867
 3986TIP3    H233518   1.988   4.960   8.322  0.6990  0.5134 -0.8069
 3987TIP3   OH233519   6.730   6.044   0.326 -0.0072 -0.0049 -0.3840
 3987TIP3    H133520   6.641   6.042   0.362 -0.0412 -0.0562 -0.4706
 3987TIP3    H233521   6.764   5.956   0.342 -0.9503 -0.8825 -2.8000
 3988TIP3   OH233522   4.027   1.680   0.665  0.2355  0.5539 -0.9573
 3988TIP3    H133523   4.104   1.669   0.720  1.3576  1.6308 -2.2512
 3988TIP3    H233524   3.970   1.739   0.714 -0.0315 -0.6205  0.2182
 3989TIP3   OH233525   5.236   2.952   0.037 -0.5048  0.4327  0.8610
 3989TIP3    H133526   5.320   2.940  -0.006 -0.3685 -1.3472  1.5300
 3989TIP3    H233527   5.244   2.903   0.119 -1.6325  1.6023  1.7125
 3990TIP3   OH233528   4.229   5.030   1.797  0.2958  0.3079  0.0815
 3990TIP3    H133529   4.248   5.120   1.822 -0.9846  0.7406 -0.4001
 3990TIP3    H233530   4.137   5.018   1.820  0.0845 -0.4413 -1.0498
 3991TIP3   OH233531   0.694   2.114   8.099  0.1845  0.0198  0.0851
 3991TIP3    H133532   0.705   2.113   8.194 -0.6922 -1.9936  0.1930
 3991TIP3    H233533   0.600   2.121   8.085  0.0875 -1.9417 -0.5627
 3992TIP3   OH233534   6.409   3.065   1.136 -0.2967 -0.4403 -0.3517
 3992TIP3    H133535   6.321   3.027   1.136 -1.2113  1.5671  0.6254
 3992TIP3    H233536   6.398   3.153   1.100  1.0124  0.4390  1.2776
 3993TIP3   OH233537   4.916   0.229   2.272 -0.4268  0.3902 -0.4879
 3993TIP3    H133538   4.873   0.314   2.266  3.4582  2.7055  0.8363
 3993TIP3    H233539   4.906   0.190   2.185 -3.9305  1.1888 -0.5980
 3994TIP3   OH233540   3.833   4.011   8.472  0.2297  0.0457 -0.2652
 3994TIP3    H133541   3.765   4.042   8.532 -1.5545 -1.0032 -1.6659
 3994TIP3    H233542   3.837   3.917   8.486  0.3493 -0.1014 -1.2384
 3995TIP3   OH233543   1.058   2.200   1.051 -0.2779 -0.0476  0.6890
 3995TIP3    H133544   0.978   2.172   1.096  0.2981 -0.8312  1.2862
 3995TIP3    H233545   1.124   2.204   1.121  0.3499 -0.0465  0.1116
 3996TIP3   OH233546   2.548   0.612   0.284 -0.0903 -0.4047 -0.2136
 3996TIP3    H133547   2.481   0.585   0.221  0.1054 -1.8480  0.1733
 3996TIP3    H233548   2.500   0.627   0.365 -0.1853  0.3543 -0.4033
 3997TIP3   OH233549   4.077   2.712   3.086 -0.2896  0.6128  0.4281
 3997TIP3    H133550   4.043   2.762   3.161  1.2371  0.7434  1.0687
 3997TIP3    H233551   4.112   2.779   3.027 -0.7750  0.4596 -0.0386
 3998TIP3   OH233552   4.465   6.000   7.674  0.1750  0.0724 -0.2232
 3998TIP3    H133553   4.478   6.091   7.699  0.4378 -0.2065  0.6624
 3998TIP3    H233554   4.547   5.956   7.699 -0.8844 -0.9062  1.7373
 3999TIP3   OH233555   2.656   2.288   1.913  0.3033 -0.5828  0.4039
 3999TIP3    H133556   2.561   2.293   1.903  0.0273  0.7407  2.9102
 3999TIP3    H233557   2.670   2.225   1.983  1.1744  0.2475  1.0047
 4000TIP3   OH233558   4.962   2.695   8.431  0.0705  0.0625  0.3971
 4000TIP3    H133559   5.007   2.611   8.440  0.7400  0.1270 -1.7242
 4000TIP3    H233560   5.028   2.760   8.454  0.2305  0.0626 -0.0470
 4001TIP3   OH233561   0.338   2.883   7.361 -0.3268 -0.0489  0.4179
 4001TIP3    H133562   0.350   2.847   7.274 -0.8568  0.3833  0.1545
 4001TIP3    H233563   0.370   2.816   7.421  0.0457 -0.3418 -0.1124
 4002TIP3   OH233564   1.924   0.619   3.173 -0.3748  0.1366 -0.3394
 4002TIP3    H133565   1.887   0.688   3.229 -1.1700 -0.0996 -0.5633
 4002TIP3    H233566   1.872   0.623   3.093 -0.4115 -0.7016 -0.3655
 4003TIP3   OH233567   4.312   2.115   2.825  0.2199  0.1343 -0.0926
 4003TIP3    H133568   4.279   2.185   2.770 -0.4312  0.1043  0.2525
 4003TIP3    H233569   4.252   2.042   2.811 -1.4619  0.8864  2.4694
 4004TIP3   OH233570   1.224   0.024   1.488 -0.4018  0.6210 -0.1608
 4004TIP3    H133571   1.130   0.040   1.493 -0.3692  0.3858  2.7183
 4004TIP3    H233572   1.234  -0.037   1.415 -2.3967  0.9792 -0.7917
 4005TIP3   OH233573   5.665   5.261   2.223  0.1301 -0.0090  0.5833
 4005TIP3    H133574   5.667   5.224   2.311  0.1588  0.9564  0.9928
 4005TIP3    H233575   5.576   5.292   2.211 -0.6040 -2.3046 -0.6775
 4006TIP3   OH233576   2.803   2.151   1.640  0.5576  0.0908  0.3408
 4006TIP3    H133577   2.815   2.233   1.689  1.3847 -0.8693  1.8065
 4006TIP3    H233578   2.716   2.120   1.667  0.9385 -0.3461  1.0910
 4007TIP3   OH233579   3.943   6.681   1.429 -0.1497 -0.5830  0.2188
 4007TIP3    H133580   3.949   6.627   1.350 -0.1139 -0.7201  0.3136
 4007TIP3    H233581   3.852   6.711   1.430 -0.9151 -2.7081  1.4881
 4008TIP3   OH233582   5.490   3.708   1.776  0.3468  0.1374 -0.5061
 4008TIP3    H133583   5.548   3.752   1.838 -0.3851  1.3773 -0.6675
 4008TIP3    H233584   5.548   3.650   1.726  0.7200 -2.2487  2.4100
 4009TIP3   OH233585   4.655   2.621   2.421  0.1170  0.1231 -0.5687
 4009TIP3    H133586   4.649   2.614   2.517  1.7754 -2.0076 -0.5345
 4009TIP3    H233587   4.743   2.653   2.405 -0.1298  0.4142 -1.3968
 4010TIP3   OH233588   6.371   4.328   8.317 -0.1046  0.3600  0.3926
 4010TIP3    H133589   6.289   4.296   8.354 -1.0748  0.6951 -1.3481
 4010TIP3    H233590   6.429   4.252   8.315 -0.7638 -0.1509  0.6330
 4011TIP3   OH233591   2.383   2.479   2.994 -0.5080 -0.5205  0.3907
 4011TIP3    H133592   2.405   2.404   3.049 -0.3661 -0.2942  0.6458
 4011TIP3    H233593   2.293   2.463   2.966 -1.4635  0.5377  2.6548
 4012TIP3   OH233594   3.044   5.879   8.829  0.1662 -0.1214 -0.2485
 4012TIP3    H133595   3.117   5.878   8.890  0.9794  1.1351 -1.1430
 4012TIP3    H233596   2.997   5.960   8.849 -0.7222 -0.6867  0.0078
 4013TIP3   OH233597   1.357   2.538   1.341 -0.1714  0.4565 -0.0051
 4013TIP3    H133598   1.382   2.491   1.261 -0.8973  0.7199 -0.4002
 4013TIP3    H233599   1.322   2.469   1.398  0.1056  0.3070 -0.0112
 4014TIP3   OH233600   6.564   5.686   2.430 -0.5899  0.5387 -0.2357
 4014TIP3    H133601   6.571   5.705   2.523  1.6799 -2.0405  0.2519
 4014TIP3    H233602   6.562   5.590   2.425  0.0205  0.5777 -2.8416
 4015TIP3   OH233603   3.263   0.950   1.445 -0.1383 -0.0142 -0.0787
 4015TIP3    H133604   3.214   0.948   1.528  0.3834  0.6662  0.2597
 4015TIP3    H233605   3.344   0.996   1.467 -1.1841  2.7424 -1.5767
 4016TIP3   OH233606   0.465   3.714   8.016 -0.1657  0.7069  0.2544
 4016TIP3    H133607   0.535   3.663   8.056  1.1587  3.0757  1.1140
 4016TIP3    H233608   0.443   3.666   7.936  0.7380 -1.3459  1.1708
 4017TIP3   OH233609   5.954   0.335   1.844 -0.4671 -0.1651 -0.3543
 4017TIP3    H133610   5.949   0.351   1.750 -0.4117 -2.9763 -0.9364
 4017TIP3    H233611   5.864   0.342   1.874 -0.8628 -1.6193 -1.1227
 4018TIP3   OH233612   6.670   2.815   1.874  0.0549 -0.7092  0.3902
 4018TIP3    H133613   6.577   2.830   1.861 -0.3051 -0.5810  2.6137
 4018TIP3    H233614   6.679   2.720   1.881 -0.0825 -0.6728  1.1368
 4019TIP3   OH233615   1.346   6.402   3.090 -0.2816 -0.0216  0.6954
 4019TIP3    H133616   1.396   6.422   3.169  1.7015 -1.8075 -0.0418
 4019TIP3    H233617   1.310   6.315   3.105 -0.3381 -0.1577 -0.1642
 4020TIP3   OH233618   0.528   5.147   1.221  0.1763  0.1069  0.1156
 4020TIP3    H133619   0.581   5.134   1.300  0.7473 -0.0876 -0.2874
 4020TIP3    H233620   0.589   5.184   1.158  0.1164 -1.1234 -0.6987
 4021TIP3   OH233621   5.704   6.014   2.575  0.7830  0.0429 -0.6684
 4021TIP3    H133622   5.747   5.953   2.635 -1.0163  0.0419  0.6920
 4021TIP3    H233623   5.642   5.960   2.526  1.8986  0.1339 -2.2629
 4022TIP3   OH233624   2.354   3.895   0.043 -0.0089 -0.1996 -0.4324
 4022TIP3    H133625   2.282   3.957   0.035 -0.5342 -0.6332  0.7404
 4022TIP3    H233626   2.325   3.832   0.109  0.5576 -1.6370 -1.5145
 4023TIP3   OH233627   2.044   4.622   8.427 -0.1249 -0.0844 -0.5074
 4023TIP3    H133628   2.104   4.688   8.462 -0.6584  0.1875 -0.0803
 4023TIP3    H233629   2.051   4.548   8.487 -1.7394  0.7375  0.7891
 4024TIP3   OH233630   2.633   1.946   8.832 -0.1341  0.1280  0.5774
 4024TIP3    H133631   2.689   2.018   8.801 -0.6666  1.0886  1.7731
 4024TIP3    H233632   2.572   1.931   8.760  1.4271 -0.7449 -0.6433
 4025TIP3   OH233633   4.989   2.130   1.087  0.2777  0.2234 -0.5579
 4025TIP3    H133634   4.948   2.106   1.170 -0.3983  0.0939 -0.9132
 4025TIP3    H233635   4.927   2.191   1.047  1.5722  1.9460 -0.0475
 4026TIP3   OH233636   4.572   1.602   1.553 -0.2014 -0.2576 -0.7097
 4026TIP3    H133637   4.662   1.574   1.537 -0.2031 -0.4692 -0.3588
 4026TIP3    H233638   4.526   1.522   1.578  0.2032  0.3022  2.1182
 4027TIP3   OH233639   5.652   4.015   8.916  0.1203  0.0223  0.2645
 4027TIP3    H133640   5.558   4.010   8.932  0.3254  2.5541  2.9488
 4027TIP3    H233641   5.660   4.058   8.830 -1.1618  0.3982  0.3166
 4028TIP3   OH233642   4.308   1.401   0.026 -0.2943 -0.2072  0.0497
 4028TIP3    H133643   4.324   1.483   0.073 -0.1955 -0.2077  0.0189
 4028TIP3    H233644   4.305   1.426  -0.066 -2.7566  0.1353  0.1795
 4029TIP3   OH233645   2.932   4.631   1.412 -0.1554  0.1873 -0.2482
 4029TIP3    H133646   3.025   4.646   1.396  0.5113 -2.9327  0.0857
 4029TIP3    H233647   2.910   4.556   1.358 -1.8867 -0.5574  1.3825
 4030TIP3   OH233648   6.191   1.073   1.941  0.8605  0.5707 -0.2915
 4030TIP3    H133649   6.254   1.005   1.963 -0.7210 -1.1268 -0.7520
 4030TIP3    H233650   6.244   1.145   1.906  2.6296 -0.1771  0.7173
 4031TIP3   OH233651   1.547   1.946   8.779 -0.1235  0.0257 -0.4003
 4031TIP3    H133652   1.595   1.863   8.770 -0.3701 -0.1187 -0.4008
 4031TIP3    H233653   1.574   1.998   8.704  0.4685  0.1682 -0.0939
 4032TIP3   OH233654   2.211   3.343   1.895 -0.0891 -0.4032  0.2079
 4032TIP3    H133655   2.260   3.306   1.968  1.2219 -0.4260 -0.6555
 4032TIP3    H233656   2.215   3.277   1.827 -0.4626  0.0196 -0.2348
 4033TIP3   OH233657   6.050   0.367   2.110 -0.0053  0.1698  0.1468
 4033TIP3    H133658   6.145   0.368   2.119  0.0239 -2.2528  0.9208
 4033TIP3    H233659   6.035   0.355   2.016  0.4671  0.0506  0.0852
 4034TIP3   OH233660   0.598   1.542   7.251  0.1766  0.1320 -0.3162
 4034TIP3    H133661   0.663   1.598   7.292  0.5692 -0.1587 -0.5342
 4034TIP3    H233662   0.646   1.496   7.182 -0.2700 -0.0456 -0.5139
 4035TIP3   OH233663   2.464   5.284   7.366  0.4861  0.3597 -0.7966
 4035TIP3    H133664   2.542   5.332   7.338 -0.4543  0.0397 -4.6045
 4035TIP3    H233665   2.393   5.324   7.315 -1.6265 -0.3011  1.4654
 4036TIP3   OH233666   0.768   1.775   1.866  0.2873 -0.1956 -0.3053
 4036TIP3    H133667   0.747   1.682   1.853 -0.0489 -0.1422 -0.1643
 4036TIP3    H233668   0.732   1.818   1.788  1.5445 -0.3302 -0.9922
 4037TIP3   OH233669   1.514   0.020   8.477  0.2852 -0.0183  0.3288
 4037TIP3    H133670   1.510   0.111   8.449 -1.3104  0.0431  0.6545
 4037TIP3    H233671   1.424  -0.001   8.503  0.2045 -2.2187 -1.4244
 4038TIP3   OH233672   0.501   4.679   0.727 -0.6386 -0.1564  0.4764
 4038TIP3    H133673   0.509   4.641   0.640  1.2453 -1.8532  1.3222
 4038TIP3    H233674   0.425   4.636   0.766  0.3997 -1.8135  0.7623
 4039TIP3   OH233675   1.653   5.540   0.107 -0.2037 -0.5305  0.3311
 4039TIP3    H133676   1.708   5.508   0.036 -1.5395 -0.9430 -0.5518
 4039TIP3    H233677   1.700   5.516   0.187  2.2211  1.5154 -0.3508
 4040TIP3   OH233678   1.995   2.496   0.906  0.4416  0.0732 -0.3520
 4040TIP3    H133679   2.084   2.465   0.923  0.5587  0.8492  0.4854
 4040TIP3    H233680   1.981   2.476   0.813  0.5805 -2.2712  0.0661
 4041TIP3   OH233681   0.465   2.232   0.073 -0.0996  0.8889  0.0718
 4041TIP3    H133682   0.396   2.198   0.017 -0.7649  0.9502  0.8296
 4041TIP3    H233683   0.481   2.321   0.041 -0.3748  0.8749 -0.1033
 4042TIP3   OH233684   0.852   0.516   2.294  0.0806  0.0446  0.4350
 4042TIP3    H133685   0.846   0.601   2.338 -0.9021 -0.1406  0.6871
 4042TIP3    H233686   0.921   0.469   2.340 -0.6822 -0.0070  1.5642
 4043TIP3   OH233687   4.943   6.617   1.918 -0.3218 -0.2241  0.0087
 4043TIP3    H133688   4.988   6.535   1.941 -1.7366 -0.9758  0.1873
 4043TIP3    H233689   4.862   6.589   1.876 -0.9679  1.0862  0.3448
 4044TIP3   OH233690   5.520   1.763   8.535  0.4054  0.1173  0.3994
 4044TIP3    H133691   5.511   1.858   8.537 -0.4687  0.0376  0.5450
 4044TIP3    H233692   5.448   1.733   8.480 -0.0876 -0.5360  1.3831
 4045TIP3   OH233693   3.002   2.061   8.703 -0.0757  0.6122 -0.0632
 4045TIP3    H133694   3.062   2.036   8.773  0.2145  1.1247 -0.1243
 4045TIP3    H233695   3.049   2.128   8.654  0.6819 -1.2832 -2.1338
 4046TIP3   OH233696   0.285   6.537   8.497  0.0034 -0.3566  0.2371
 4046TIP3    H133697   0.242   6.459   8.464 -1.6907  1.1900 -1.4721
 4046TIP3    H233698   0.217   6.584   8.544  1.1568 -0.1750  1.7849
 4047TIP3   OH233699   3.536   6.309   7.961  0.0272  0.0809  0.1029
 4047TIP3    H133700   3.602   6.247   7.992  1.6678  0.6390 -2.0060
 4047TIP3    H233701   3.519   6.283   7.871 -1.6229  0.8264  0.1641
 4048TIP3   OH233702   6.226   5.950   1.146 -0.3621  0.2617 -0.1581
 4048TIP3    H133703   6.227   6.045   1.160  0.0796  0.3169 -0.5458
 4048TIP3    H233704   6.176   5.915   1.220  1.7695  0.5707  1.5312
 4049TIP3   OH233705   0.383   3.103   1.089 -0.6603 -0.0602  0.2450
 4049TIP3    H133706   0.403   3.071   1.176 -1.6084 -1.8168 -0.1253
 4049TIP3    H233707   0.316   3.170   1.103 -1.4963 -0.9765  0.8568
 4050TIP3   OH233708   4.848   1.588   0.567  0.0354 -0.6164  0.0231
 4050TIP3    H133709   4.767   1.639   0.559  0.5898  0.0720 -1.3417
 4050TIP3    H233710   4.917   1.653   0.579  0.6338 -1.0720 -0.8449
 4051TIP3   OH233711   5.671   6.496   8.367 -0.4829 -0.3728  0.6687
 4051TIP3    H133712   5.625   6.512   8.449  1.5198  0.2992  1.7093
 4051TIP3    H233713   5.670   6.400   8.358 -0.5792 -0.4617  1.5375
 4052TIP3   OH233714   3.907   2.362   7.966  0.3810 -0.0235  0.2961
 4052TIP3    H133715   3.922   2.375   7.872  0.9000 -0.7962  0.2665
 4052TIP3    H233716   3.991   2.334   8.000  0.2597  0.5072  1.0548
 4053TIP3   OH233717   0.512   1.708   2.064  0.3627 -0.0052 -0.3623
 4053TIP3    H133718   0.470   1.725   1.980 -0.2934  0.7896  0.1146
 4053TIP3    H233719   0.605   1.728   2.049  0.8056 -2.5597 -1.6494
 4054TIP3   OH233720   5.542   0.367   8.687  0.1712 -0.3012 -0.1252
 4054TIP3    H133721   5.630   0.369   8.724 -0.7072  0.4789  2.0594
 4054TIP3    H233722   5.484   0.394   8.758 -1.9038 -1.1216 -1.3755
 4055TIP3   OH233723   0.739   0.302   1.023  0.2041  0.2180 -0.3563
 4055TIP3    H133724   0.673   0.371   1.032 -1.6905 -1.5802  0.2816
 4055TIP3    H233725   0.740   0.281   0.930  2.5673  2.6474 -1.0060
 4056TIP3   OH233726   4.521   1.046   7.949 -0.5348 -0.0882 -0.0368
 4056TIP3    H133727   4.577   1.027   7.874 -0.8793  0.2969 -0.3948
 4056TIP3    H233728   4.432   1.033   7.917 -0.6830 -0.0214  0.3353
 4057TIP3   OH233729   2.317   3.783   1.671 -0.0343 -0.1456  0.3268
 4057TIP3    H133730   2.225   3.806   1.685 -0.0567 -0.4519  0.6983
 4057TIP3    H233731   2.322   3.690   1.694  0.4816  0.0067  0.8589
 4058TIP3   OH233732   0.597   5.860   0.991 -0.0152  0.5488 -0.0457
 4058TIP3    H133733   0.516   5.831   0.949  0.1129  0.2677 -0.1048
 4058TIP3    H233734   0.618   5.789   1.051  0.5300  0.3272 -0.4934
 4059TIP3   OH233735   0.375   1.365   8.811 -0.5265 -0.1639 -0.3262
 4059TIP3    H133736   0.463   1.330   8.817 -0.7404 -0.9855 -1.5764
 4059TIP3    H233737   0.329   1.328   8.887  0.1474  0.1691  0.2580
 4060TIP3   OH233738   3.641   2.373   2.971  0.0243  0.2907  0.8125
 4060TIP3    H133739   3.577   2.437   3.002 -0.5823 -0.4278  1.0779
 4060TIP3    H233740   3.596   2.327   2.900  1.2753  1.7002 -0.9751
 4061TIP3   OH233741   4.572   5.478   8.023 -0.5552 -0.1571 -0.3228
 4061TIP3    H133742   4.628   5.501   7.949 -0.8035 -0.3959 -0.5854
 4061TIP3    H233743   4.617   5.405   8.065  0.4985  1.0686  0.8095
 4062TIP3   OH233744   1.322   1.288   0.932 -0.3709 -0.1563 -0.4020
 4062TIP3    H133745   1.227   1.301   0.931 -0.4093 -0.3559  0.3566
 4062TIP3    H233746   1.357   1.372   0.902 -0.8149 -0.5672 -2.1753
 4063TIP3   OH233747   2.082   1.990   7.685 -0.6668 -0.2457  0.0913
 4063TIP3    H133748   2.077   2.042   7.765 -0.7611 -0.6571  0.3516
 4063TIP3    H233749   2.118   2.050   7.620 -1.6143  0.4243  0.1639
 4064TIP3   OH233750   4.411   0.965   8.257  0.3406  0.2327  0.2029
 4064TIP3    H133751   4.496   0.952   8.216  0.4070 -0.7831  0.6459
 4064TIP3    H233752   4.431   1.001   8.343  0.2686  0.8239 -0.0176
 4065TIP3   OH233753   4.567   2.470   0.629  0.1661 -0.0521  0.1200
 4065TIP3    H133754   4.530   2.482   0.717 -0.0447  1.7757 -0.1857
 4065TIP3    H233755   4.491   2.454   0.573  0.3584 -2.1302  0.3412
 4066TIP3   OH233756   3.317   1.521   8.456 -0.2993 -0.9058  0.2529
 4066TIP3    H133757   3.333   1.615   8.449  0.1546 -0.8586  1.5969
 4066TIP3    H233758   3.377   1.481   8.394  0.7187 -0.3790  0.8751
 4067TIP3   OH233759   2.989   0.132   0.715 -0.3418  0.6424  0.6328
 4067TIP3    H133760   3.020   0.115   0.626  0.9070 -0.7485  1.2896
 4067TIP3    H233761   3.066   0.164   0.762 -0.4787 -0.4845  1.6796
 4068TIP3   OH233762   3.083   6.322   1.820  0.3213  0.3368  0.2894
 4068TIP3    H133763   3.143   6.249   1.837  1.1847  0.3796 -2.1946
 4068TIP3    H233764   2.998   6.290   1.850  0.7555 -1.5469 -0.3211
 4069TIP3   OH233765   1.149   0.888   1.281  0.2837 -0.0969 -0.3229
 4069TIP3    H133766   1.070   0.914   1.328 -1.1256 -1.4011 -1.8627
 4069TIP3    H233767   1.171   0.802   1.316  2.0149  0.8758  1.2010
 4070TIP3   OH233768   2.271   5.148   2.845 -0.0079  0.1099 -0.2950
 4070TIP3    H133769   2.208   5.077   2.859 -0.4928  0.2592 -1.5884
 4070TIP3    H233770   2.355   5.104   2.833  0.5871 -0.0319  3.2569
 4071TIP3   OH233771   3.032   6.415   2.422 -0.2736 -0.3270  0.3016
 4071TIP3    H133772   3.091   6.454   2.357 -1.1149  0.4049 -0.0376
 4071TIP3    H233773   3.008   6.330   2.384 -0.0579 -0.2935  0.0848
 4072TIP3   OH233774   5.465   3.941   7.907 -0.0116 -0.1911  0.1664
 4072TIP3    H133775   5.495   3.850   7.894 -0.5778 -0.3325 -0.2129
 4072TIP3    H233776   5.544   3.989   7.931  0.1144 -0.9901  1.4485
 4073TIP3   OH233777   0.511   4.770   1.331  1.0436  0.0703  0.3372
 4073TIP3    H133778   0.602   4.791   1.353  0.6590  3.3399 -0.6617
 4073TIP3    H233779   0.459   4.836   1.376 -0.6481 -0.3561 -0.8758
 4074TIP3   OH233780   6.541   6.237   8.661  0.3789 -0.2219 -0.0399
 4074TIP3    H133781   6.461   6.260   8.615  0.7036  1.5207  0.2015
 4074TIP3    H233782   6.600   6.206   8.592 -0.4466 -1.4611 -0.2246
 4075TIP3   OH233783   3.383   1.927   8.167  0.0589 -0.5128 -0.1320
 4075TIP3    H133784   3.342   1.908   8.251  1.4353  0.4069  0.7644
 4075TIP3    H233785   3.311   1.918   8.103 -1.5458  1.0181  1.3654
 4076TIP3   OH233786   5.464   3.195   0.280 -0.0918 -1.0067  0.5126
 4076TIP3    H133787   5.371   3.188   0.259  0.0180 -1.8567  0.2463
 4076TIP3    H233788   5.467   3.229   0.369 -0.5957  1.8503 -0.4723
 4077TIP3   OH233789   5.282   4.113   7.807  0.7084 -0.1113  0.5157
 4077TIP3    H133790   5.286   4.096   7.713  2.7287  1.0662  0.3213
 4077TIP3    H233791   5.321   4.035   7.847  0.5383 -0.2903  0.3375
 4078TIP3   OH233792   4.018   0.545   0.860  0.5562 -0.6166  0.0424
 4078TIP3    H133793   4.008   0.604   0.934  1.1090 -0.7033  0.1897
 4078TIP3    H233794   4.106   0.508   0.870  0.6206 -0.6574 -0.6321
 4079TIP3   OH233795   5.795   6.624   0.996  0.7869  0.2231 -0.0207
 4079TIP3    H133796   5.739   6.612   0.919  1.9972  1.5144 -1.1653
 4079TIP3    H233797   5.871   6.568   0.979  0.4888 -0.4772  0.8744
 4080TIP3   OH233798   5.636   2.655   2.829 -0.0066  0.5308  0.0648
 4080TIP3    H133799   5.589   2.612   2.758  1.1051  0.4088 -0.6175
 4080TIP3    H233800   5.570   2.665   2.899 -0.6658 -0.9211 -0.3142
 4081TIP3   OH233801   4.426   1.960   0.815  0.1666  0.1110 -0.2229
 4081TIP3    H133802   4.355   1.948   0.751  0.6648 -2.6070 -0.3749
 4081TIP3    H233803   4.382   1.953   0.900 -0.0548  0.6998 -0.2833
 4082TIP3   OH233804   1.141   2.460   8.332  0.5007  0.0345 -1.0570
 4082TIP3    H133805   1.062   2.458   8.279  1.4819  0.9038 -2.6649
 4082TIP3    H233806   1.155   2.369   8.358 -0.7833 -0.1967 -1.1018
 4083TIP3   OH233807   3.883   3.754   0.132 -0.4168 -0.0574  0.3157
 4083TIP3    H133808   3.805   3.753   0.188  0.1091 -0.9988  1.0692
 4083TIP3    H233809   3.854   3.717   0.049 -0.5124 -1.6195  1.0051
 4084TIP3   OH233810   4.083   2.274   2.936  0.2686 -0.0536  0.4218
 4084TIP3    H133811   4.052   2.356   2.898 -0.6684  0.0459  1.3491
 4084TIP3    H233812   4.178   2.283   2.937  0.1512  1.4627  1.4428
 4085TIP3   OH233813   3.793   3.359   3.065 -0.3129  0.0511 -0.3155
 4085TIP3    H133814   3.711   3.317   3.088  0.0608 -0.5628 -0.0774
 4085TIP3    H233815   3.774   3.409   2.985 -0.8558 -0.2639 -0.3826
 4086TIP3   OH233816   1.176   6.279   1.632 -0.1963 -0.0903 -0.2586
 4086TIP3    H133817   1.146   6.271   1.722  2.2950 -0.3851  0.6224
 4086TIP3    H233818   1.213   6.367   1.627  1.2896 -0.6918 -0.4233
 4087TIP3   OH233819   1.581   5.489   0.596 -1.0425  0.1748  0.0203
 4087TIP3    H133820   1.601   5.420   0.659 -0.5066 -0.3284 -0.6867
 4087TIP3    H233821   1.632   5.565   0.626  0.3333 -0.4784 -0.5726
 4088TIP3   OH233822   1.045   2.600   8.578 -0.4153 -0.4352  0.1396
 4088TIP3    H133823   1.037   2.693   8.557 -2.2482 -0.5245  0.3458
 4088TIP3    H233824   1.074   2.559   8.496 -1.0119  0.1154 -0.3521
 4089TIP3   OH233825   2.169   4.366   7.486 -0.5867 -0.7662 -0.3590
 4089TIP3    H133826   2.197   4.427   7.418  0.0501 -0.4287  0.1902
 4089TIP3    H233827   2.073   4.370   7.485 -0.5855 -0.7553 -1.2106
 4090TIP3   OH233828   4.710   3.598   1.896 -0.5983  0.3675 -0.7728
 4090TIP3    H133829   4.782   3.616   1.957 -1.9146 -0.7093  1.1795
 4090TIP3    H233830   4.735   3.516   1.853  0.7465  1.5693 -2.4391
 4091TIP3   OH233831   1.560   6.130   2.224  0.5593 -0.0390 -0.2111
 4091TIP3    H133832   1.563   6.154   2.316  3.5857 -2.4473  0.5007
 4091TIP3    H233833   1.495   6.188   2.185 -0.8800  1.0136  3.4169
 4092TIP3   OH233834   2.580   1.342   1.951  0.5128  0.0906  0.1377
 4092TIP3    H133835   2.561   1.402   2.023  0.2819 -0.3290  0.4306
 4092TIP3    H233836   2.674   1.350   1.937  1.2135 -2.3029  2.7419
 4093TIP3   OH233837   6.307   6.457   1.236  0.1634 -0.3449  0.7112
 4093TIP3    H133838   6.373   6.399   1.199  0.3204  1.4694 -2.1578
 4093TIP3    H233839   6.268   6.407   1.308  1.5331 -3.2016 -0.3966
 4094TIP3   OH233840   6.150   6.218   1.063 -0.0977  0.1315  0.6188
 4094TIP3    H133841   6.143   6.274   0.987  0.0289 -0.5056  0.1311
 4094TIP3    H233842   6.141   6.277   1.138  2.0930  1.0983  0.1674
 4095TIP3   OH233843   5.107   4.904   1.256 -0.1477  0.2390 -1.2284
 4095TIP3    H133844   5.162   4.968   1.211 -1.1013  0.4619 -2.1165
 4095TIP3    H233845   5.039   4.881   1.193 -0.9781 -0.1646 -0.2356
 4096TIP3   OH233846   2.960   3.615   0.725 -0.4702 -0.1862  0.4427
 4096TIP3    H133847   2.909   3.636   0.646  0.0132 -2.4986 -0.5695
 4096TIP3    H233848   3.023   3.687   0.732  0.6198 -0.7450 -2.3567
 4097TIP3   OH233849   6.362   6.384   1.776  0.3887  0.3969 -0.6105
 4097TIP3    H133850   6.278   6.424   1.754  0.2734 -0.5272 -2.0380
 4097TIP3    H233851   6.357   6.365   1.870 -0.9770  0.3968 -0.6707
 4098TIP3   OH233852   1.241   0.623   1.296 -0.3514 -0.1614  0.1532
 4098TIP3    H133853   1.304   0.600   1.227 -0.7581  2.3364 -1.1565
 4098TIP3    H233854   1.201   0.539   1.320  1.1751 -1.3751 -1.2569
 4099TIP3   OH233855   1.859   3.967   1.805  0.1074 -0.6853 -0.3908
 4099TIP3    H133856   1.860   3.917   1.886 -1.4962  0.3293  0.3131
 4099TIP3    H233857   1.781   3.937   1.759 -1.5237  1.7768  0.5466
 4100TIP3   OH233858   6.436   0.017   0.904 -0.3443  0.1096  0.0420
 4100TIP3    H133859   6.429  -0.007   0.996 -0.0441 -1.1069 -0.2380
 4100TIP3    H233860   6.492   0.095   0.904  1.3743 -1.0642  0.7450
 4101TIP3   OH233861   6.242   6.480   7.513 -0.1883 -0.2675 -0.7047
 4101TIP3    H133862   6.237   6.569   7.549 -0.2408 -0.1372 -1.0314
 4101TIP3    H233863   6.332   6.471   7.482 -0.2829 -0.1964 -1.0050
 4102TIP3   OH233864   0.369   6.167   2.320  0.1256  0.0785 -0.6999
 4102TIP3    H133865   0.312   6.242   2.335  1.4265  0.9888 -0.1231
 4102TIP3    H233866   0.455   6.195   2.351  0.5513 -1.8162  0.0081
 4103TIP3   OH233867   0.435   1.128   2.032  0.3265  0.5348 -0.1115
 4103TIP3    H133868   0.421   1.034   2.049 -1.3166  0.5029 -1.4316
 4103TIP3    H233869   0.477   1.160   2.111 -0.6500 -0.9851  1.0870
 4104TIP3   OH233870   3.784   5.833   0.906  0.1945  0.2347 -0.3890
 4104TIP3    H133871   3.792   5.928   0.917 -0.6413  0.1936  0.6685
 4104TIP3    H233872   3.710   5.808   0.961  0.4509 -1.0477 -0.5937
 4105TIP3   OH233873   1.645   1.290   2.075 -0.6358 -0.3085  0.0553
 4105TIP3    H133874   1.553   1.316   2.082 -0.7805 -1.0927  1.4014
 4105TIP3    H233875   1.643   1.194   2.076  0.2487 -0.3421  1.3117
 4106TIP3   OH233876   1.116   1.031   2.214 -0.3329 -0.3740 -0.4146
 4106TIP3    H133877   1.080   1.038   2.302  0.2943 -1.3046 -0.0672
 4106TIP3    H233878   1.124   1.122   2.184 -2.2312 -0.1048 -0.2304
 4107TIP3   OH233879   4.750   6.412   0.799 -0.2758  0.3046  0.1251
 4107TIP3    H133880   4.681   6.463   0.843  0.1857 -0.1840  1.4617
 4107TIP3    H233881   4.743   6.325   0.837  1.4118  0.3799  0.6974
 4108TIP3   OH233882   5.134   2.126   0.863  0.4142  0.3884  0.2355
 4108TIP3    H133883   5.091   2.116   0.948  0.0197  0.7208  0.0791
 4108TIP3    H233884   5.170   2.040   0.844  0.5676  0.3275  0.7718
 4109TIP3   OH233885   6.086   1.708   2.210 -0.3226 -0.2940 -0.0758
 4109TIP3    H133886   6.059   1.657   2.133  0.3725 -1.9569  0.7373
 4109TIP3    H233887   6.174   1.675   2.230  0.5626  1.9432 -0.0812
 4110TIP3   OH233888   0.968   2.984   3.279 -0.4660 -0.2684  0.0071
 4110TIP3    H133889   0.895   2.922   3.277 -0.7864  0.0699  0.8576
 4110TIP3    H233890   0.953   3.040   3.203 -0.2357 -1.1500 -0.7028
 4111TIP3   OH233891   3.195   6.623   0.725 -0.1169  0.7247  0.8367
 4111TIP3    H133892   3.113   6.642   0.771 -1.2749 -1.0540 -0.3751
 4111TIP3    H233893   3.226   6.709   0.695 -0.7649  1.5864  2.5053
 4112TIP3   OH233894   3.625   6.502   1.483 -0.3691 -0.1785 -0.6522
 4112TIP3    H133895   3.676   6.580   1.460  0.9810 -1.3618 -1.8507
 4112TIP3    H233896   3.596   6.518   1.573  2.3573  0.4793  0.2200
 4113TIP3   OH233897   2.060   3.161   3.038  0.0561 -0.0251 -0.0757
 4113TIP3    H133898   2.087   3.105   3.111  0.1214 -3.0606 -2.2698
 4113TIP3    H233899   2.122   3.234   3.041  1.5119 -1.2135  1.5634
 4114TIP3   OH233900   5.074   1.761   2.791 -0.1111 -0.3381  0.2198
 4114TIP3    H133901   5.051   1.811   2.870  0.1398  1.2329 -0.6526
 4114TIP3    H233902   5.096   1.674   2.823 -1.7775 -0.2802  1.6905
 4115TIP3   OH233903   4.609   0.114   1.536 -0.2609  0.5068  0.2177
 4115TIP3    H133904   4.525   0.103   1.490  0.4163  1.0772 -1.2302
 4115TIP3    H233905   4.623   0.208   1.538  0.2544  0.4240  0.6223
 4116TIP3   OH233906   0.083   6.655   8.268 -0.7709  0.1902 -0.6328
 4116TIP3    H133907   0.109   6.574   8.225 -0.6351  1.0168 -2.1714
 4116TIP3    H233908   0.033   6.627   8.345  2.4619 -1.4254  1.0590
 4117TIP3   OH233909   5.598   5.714   1.688  0.3578 -0.2197 -0.1478
 4117TIP3    H133910   5.505   5.730   1.703  0.2733 -0.6927 -0.1705
 4117TIP3    H233911   5.601   5.634   1.636  0.7669 -0.0705 -0.3529
 4118TIP3   OH233912   2.425   3.457   2.222  0.0052  0.5795  0.5184
 4118TIP3    H133913   2.384   3.476   2.307 -0.9661  1.4843 -0.1212
 4118TIP3    H233914   2.466   3.371   2.234 -0.1806  0.6559  1.8765
 4119TIP3   OH233915   1.561   1.674   8.639 -0.6639 -0.5419  0.1770
 4119TIP3    H133916   1.583   1.584   8.663  0.8517 -0.7913 -1.9030
 4119TIP3    H233917   1.527   1.667   8.550 -0.3244  0.9626 -0.0910
 4120TIP3   OH233918   6.053   1.699   0.753 -0.6974 -0.0670  0.0983
 4120TIP3    H133919   6.042   1.791   0.731  0.4708 -0.3561 -1.9622
 4120TIP3    H233920   5.980   1.655   0.709 -0.2154 -0.3074 -0.4747
 4121TIP3   OH233921   3.898   6.357   0.967  0.1164 -0.2509 -0.8407
 4121TIP3    H133922   3.927   6.439   0.926  2.0499  0.3300  1.4758
 4121TIP3    H233923   3.803   6.360   0.960  0.1681  1.7906 -1.5652
 4122TIP3   OH233924   3.101   2.129   1.090  0.1897  0.5831  0.0696
 4122TIP3    H133925   3.062   2.196   1.035 -2.7741 -0.7584  0.3393
 4122TIP3    H233926   3.100   2.050   1.037 -0.5516 -0.2178  1.2368
 4123TIP3   OH233927   3.897   6.248   3.599  0.1814  0.2176 -0.3071
 4123TIP3    H133928   3.923   6.206   3.518  1.8135 -0.3475  0.4672
 4123TIP3    H233929   3.965   6.314   3.615 -0.9561  1.4055 -0.1787
 4124TIP3   OH233930   2.905   0.547   0.680 -0.7770 -0.5462  0.3477
 4124TIP3    H133931   2.903   0.495   0.600  1.1314  0.9848 -0.7747
 4124TIP3    H233932   2.995   0.540   0.712 -0.0773  2.7616 -0.4599
 4125TIP3   OH233933   2.491   2.018   1.835  0.7373 -0.2261 -0.4433
 4125TIP3    H133934   2.492   2.028   1.740 -0.5116 -2.4763 -0.7739
 4125TIP3    H233935   2.410   1.971   1.853  1.5508 -0.9586  1.6162
 4126TIP3   OH233936   5.726   4.707   1.932  0.1141  0.3208 -0.5199
 4126TIP3    H133937   5.728   4.656   2.013 -1.4390  1.8618  0.5581
 4126TIP3    H233938   5.782   4.658   1.871  2.0912 -0.4186  1.7331
 4127TIP3   OH233939   4.619   4.982   2.498 -0.3995  0.0120 -0.2096
 4127TIP3    H133940   4.643   5.033   2.576 -0.5823 -1.0409  0.5565
 4127TIP3    H233941   4.550   5.033   2.456 -1.3251 -0.0955  1.1199
 4128TIP3   OH233942   1.414   2.684   1.670 -0.3864 -0.2065  0.0655
 4128TIP3    H133943   1.324   2.701   1.640 -0.3086 -0.4661 -0.3252
 4128TIP3    H233944   1.426   2.590   1.656 -0.7223 -0.5748  1.9365
 4129TIP3   OH233945   2.394   2.272   0.093  0.5756  0.0449  0.2108
 4129TIP3    H133946   2.379   2.177   0.086  0.9241 -0.0108  0.2300
 4129TIP3    H233947   2.435   2.295   0.010  0.2956  0.2183  0.1189
 4130TIP3   OH233948   5.621   5.812   8.558  0.6608 -0.1083  1.4646
 4130TIP3    H133949   5.565   5.735   8.564 -0.0915  0.0967 -1.3869
 4130TIP3    H233950   5.561   5.884   8.542  1.5831  0.4095  0.1281
 4131TIP3   OH233951   0.435   4.590   8.292  0.9075  0.0732  0.0610
 4131TIP3    H133952   0.456   4.508   8.336 -0.7599 -0.2304  0.3596
 4131TIP3    H233953   0.417   4.651   8.364  2.2239  0.7360 -0.1584
 4132TIP3   OH233954   6.487   0.658   3.034  0.0375  0.0781  0.6681
 4132TIP3    H133955   6.528   0.654   2.948  1.4159  0.5023  1.2769
 4132TIP3    H233956   6.540   0.601   3.089 -1.5939 -1.2212  0.9742
 4133TIP3   OH233957   4.525   2.861   2.680  0.2197  0.0407  0.3421
 4133TIP3    H133958   4.604   2.882   2.629  1.2852 -4.4693 -0.3305
 4133TIP3    H233959   4.558   2.845   2.769 -0.4776  0.8705  0.7680
 4134TIP3   OH233960   5.501   2.323   1.156 -0.2007  0.4269  0.4218
 4134TIP3    H133961   5.411   2.309   1.188 -0.6480  2.6658  0.3039
 4134TIP3    H233962   5.549   2.354   1.233 -0.2613  1.9484 -0.1333
 4135TIP3   OH233963   6.706   1.700   2.026 -0.0175 -0.5204 -0.5311
 4135TIP3    H133964   6.710   1.792   2.001  2.4024 -0.5479 -0.4647
 4135TIP3    H233965   6.766   1.693   2.101  1.5873 -2.5261 -1.8947
 4136TIP3   OH233966   1.071   0.691   2.729  0.6948 -0.0655 -0.1676
 4136TIP3    H133967   1.142   0.707   2.792 -0.4223 -1.4866  1.5316
 4136TIP3    H233968   1.098   0.611   2.683  0.4498 -0.3240  0.1316
 4137TIP3   OH233969   3.890   4.153   3.596 -0.3960 -0.6035  0.0702
 4137TIP3    H133970   3.815   4.168   3.539  0.0938 -0.1155 -0.4668
 4137TIP3    H233971   3.913   4.061   3.582 -0.5106 -0.5868 -0.2437
 4138TIP3   OH233972   1.873   2.888   2.158 -0.1938 -0.2591  0.3007
 4138TIP3    H133973   1.834   2.959   2.106 -1.8277  0.0296  1.8037
 4138TIP3    H233974   1.906   2.930   2.237  1.4736 -0.8054 -0.0668
 4139TIP3   OH233975   4.546   1.959   3.313  0.1678  0.3215  0.2697
 4139TIP3    H133976   4.501   2.043   3.320 -1.7638 -0.7116  1.1345
 4139TIP3    H233977   4.580   1.943   3.401  1.4991  0.6744 -0.1607
 4140TIP3   OH233978   4.236   4.408   7.813  0.2610  0.3232 -0.4595
 4140TIP3    H133979   4.318   4.396   7.861 -0.8331 -1.3298  1.1296
 4140TIP3    H233980   4.211   4.498   7.832  0.2503 -0.0456  1.5456
 4141TIP3   OH233981   1.096   6.004   0.578 -0.1790 -0.3377  0.2833
 4141TIP3    H133982   1.137   6.063   0.514  0.8441 -0.3192  0.9375
 4141TIP3    H233983   1.045   5.944   0.525 -1.5215  1.3184 -0.3985
 4142TIP3   OH233984   5.342   3.079   1.620  0.2544 -0.1198  0.3355
 4142TIP3    H133985   5.394   2.999   1.612  0.5075  0.0600  0.1713
 4142TIP3    H233986   5.283   3.077   1.544  0.6286  0.1161  0.0386
 4143TIP3   OH233987   0.211   0.285   7.726  0.2200  0.2682 -0.1233
 4143TIP3    H133988   0.223   0.292   7.632  1.3899  1.1070  0.0594
 4143TIP3    H233989   0.202   0.191   7.743  0.2826  0.0935 -1.0383
 4144TIP3   OH233990   5.240   1.948   8.614  0.2424 -0.1631 -0.1854
 4144TIP3    H133991   5.228   1.858   8.586  1.6290 -0.2302 -0.6439
 4144TIP3    H233992   5.223   1.947   8.708 -1.4064 -0.5422 -0.4530
 4145TIP3   OH233993   6.552   2.150   2.537  0.1694 -0.1031  0.0133
 4145TIP3    H133994   6.592   2.063   2.531 -1.7024 -0.9626 -0.7329
 4145TIP3    H233995   6.581   2.183   2.623  0.6705 -1.5738  0.4449
 4146TIP3   OH233996   5.472   3.633   0.576  0.1453 -0.1354  0.7221
 4146TIP3    H133997   5.471   3.537   0.570  1.0766 -0.2079  1.5332
 4146TIP3    H233998   5.381   3.658   0.560  0.3454 -0.9291 -2.6357
 4147TIP3   OH233999   5.827   5.796   8.892 -0.0773  0.0019  0.2763
 4147TIP3    H134000   5.900   5.753   8.847 -1.0816 -0.4913 -0.9501
 4147TIP3    H234001   5.834   5.888   8.867 -0.7981 -0.3129 -1.2200
 4148TIP3   OH234002   4.972   4.150   3.538  0.1054 -0.0967  0.2747
 4148TIP3    H134003   4.950   4.221   3.598 -0.5052  0.2932 -0.3963
 4148TIP3    H234004   4.956   4.070   3.588 -0.7430  0.2172  0.5150
 4149TIP3   OH234005   3.858   1.082   0.021 -0.7331 -0.1003  0.0788
 4149TIP3    H134006   3.765   1.103   0.012 -0.5007  1.3681  0.7772
 4149TIP3    H234007   3.875   1.091   0.115 -0.3115 -2.3810  0.2864
 4150TIP3   OH234008   5.683   3.105   7.521  0.0736  0.1696  0.6629
 4150TIP3    H134009   5.678   3.200   7.529 -1.7267  0.0501  1.4785
 4150TIP3    H234010   5.773   3.088   7.492  0.3642  2.1147  0.2780
 4151TIP3   OH234011   1.302   4.752   1.800 -0.1921 -0.3972  0.1805
 4151TIP3    H134012   1.228   4.805   1.831  1.6101  2.6910 -0.3742
 4151TIP3    H234013   1.302   4.765   1.705  0.3467 -1.3923  0.0320
 4152TIP3   OH234014   1.660   6.681   2.232  0.5883 -0.1591  0.5569
 4152TIP3    H134015   1.728   6.714   2.290 -1.3917  2.9355  1.3740
 4152TIP3    H234016   1.585   6.666   2.290 -1.4330  2.9588 -0.9837
 4153TIP3   OH234017   2.572   2.525   7.352  0.2431  0.1498 -0.0003
 4153TIP3    H134018   2.607   2.548   7.438  0.9249 -1.4308  0.1953
 4153TIP3    H234019   2.495   2.581   7.340 -1.6476 -1.5392  2.9453
 4154TIP3   OH234020   3.954   1.159   2.124  0.6120 -0.1431 -0.3223
 4154TIP3    H134021   3.975   1.066   2.113  3.0162  0.3808 -0.7336
 4154TIP3    H234022   3.986   1.181   2.212 -0.4251  0.1964 -0.0143
 4155TIP3   OH234023   0.148   3.006   0.356  0.1770  0.8425 -0.4095
 4155TIP3    H134024   0.217   2.966   0.409  0.5042  2.9268  0.8778
 4155TIP3    H234025   0.143   2.952   0.278  2.1540 -0.3039  0.1791
 4156TIP3   OH234026   3.591   4.692   0.844 -0.3634 -0.6254 -0.5290
 4156TIP3    H134027   3.658   4.648   0.792 -0.6119 -1.9472  0.2249
 4156TIP3    H234028   3.514   4.635   0.836 -1.1849  0.4898 -0.7855
 4157TIP3   OH234029   6.757   1.274   7.649 -0.5247  0.6574 -0.0215
 4157TIP3    H134030   6.761   1.188   7.691 -1.2064  0.7958  0.3365
 4157TIP3    H234031   6.677   1.271   7.597 -0.7243  1.1881  0.2493
 4158TIP3   OH234032   4.946   1.597   0.261  0.6828  0.4995 -0.0687
 4158TIP3    H134033   4.898   1.665   0.307  0.0834 -0.7827  1.2857
 4158TIP3    H234034   4.911   1.598   0.172 -0.7816  0.6067  0.4905
 4159TIP3   OH234035   3.656   5.860   2.639  0.2079  0.3482  0.4476
 4159TIP3    H134036   3.651   5.954   2.627 -0.4985  0.4533  1.4131
 4159TIP3    H234037   3.567   5.829   2.624  0.3166 -0.0869  0.6748
 4160TIP3   OH234038   1.551   1.689   2.157 -0.3508 -0.1002 -0.0052
 4160TIP3    H134039   1.517   1.771   2.124  0.9468 -0.4531 -2.4073
 4160TIP3    H234040   1.474   1.633   2.167 -1.0718  0.9090  0.2113
 4161TIP3   OH234041   3.530   3.569   7.980 -0.1573 -0.6520  0.8355
 4161TIP3    H134042   3.513   3.663   7.979  2.3777 -0.1237 -0.7115
 4161TIP3    H234043   3.486   3.537   8.059 -1.5936  1.6992  1.0638
 4162TIP3   OH234044   4.372   1.679   0.111  0.1673  0.5258  0.6080
 4162TIP3    H134045   4.301   1.730   0.071  0.3164 -1.4718 -2.5711
 4162TIP3    H234046   4.451   1.727   0.088  0.2461 -0.5607 -1.7257
 4163TIP3   OH234047   0.616   0.623   2.122  0.0515  0.1046 -0.5997
 4163TIP3    H134048   0.593   0.551   2.180 -0.8733  1.4082  0.7202
 4163TIP3    H234049   0.554   0.616   2.050  1.1854 -1.5024 -1.4981
 4164TIP3   OH234050   5.069   6.243   2.515  0.3440  0.1258 -0.2208
 4164TIP3    H134051   5.044   6.152   2.500 -0.6750 -0.0025  1.8726
 4164TIP3    H234052   5.162   6.240   2.537  0.1336 -0.5429  0.6347
 4165TIP3   OH234053   1.997   0.196   0.603  0.4586  0.4032 -0.0632
 4165TIP3    H134054   1.911   0.234   0.620 -0.2092 -0.7415 -0.7291
 4165TIP3    H234055   2.002   0.120   0.661  1.1036  0.5579  0.0974
 4166TIP3   OH234056   1.702   2.396   7.945  0.1712 -0.3084 -0.3273
 4166TIP3    H134057   1.749   2.411   8.027  0.3205 -0.9451 -0.2935
 4166TIP3    H234058   1.756   2.438   7.879  1.2508 -1.7473 -0.4076
 4167TIP3   OH234059   1.717   0.394   1.283 -0.4180 -0.1124  0.0122
 4167TIP3    H134060   1.735   0.350   1.366  0.4209 -1.4511 -0.8426
 4167TIP3    H234061   1.803   0.419   1.250 -0.6625 -0.4021 -0.8718
 4168TIP3   OH234062   5.500   4.011   1.615 -0.0299  0.3262 -0.0507
 4168TIP3    H134063   5.475   3.938   1.560  0.2600  0.7741 -0.7976
 4168TIP3    H234064   5.426   4.024   1.675  0.4324 -1.3537  0.9359
 4169TIP3   OH234065   4.394   2.079   7.522  0.0341  0.1128 -0.5351
 4169TIP3    H134066   4.350   2.081   7.437  1.4841 -1.3640 -1.3650
 4169TIP3    H234067   4.471   2.134   7.510  0.1960 -0.0311 -0.1432
 4170TIP3   OH234068   4.567   4.666   8.463  1.0723 -0.5518 -0.0239
 4170TIP3    H134069   4.472   4.663   8.477  0.7862  0.4947 -1.5412
 4170TIP3    H234070   4.581   4.618   8.382  1.7153  0.1550 -0.3442
 4171TIP3   OH234071   4.448   5.623   8.265  0.0732  0.2086 -0.0798
 4171TIP3    H134072   4.536   5.589   8.280  0.3244  0.7808 -0.2315
 4171TIP3    H234073   4.437   5.621   8.170  0.0170  0.3734 -0.0782
 4172TIP3   OH234074   2.056   0.861   8.374  0.0998 -0.1396  0.5286
 4172TIP3    H134075   2.130   0.907   8.415 -1.4718  0.9837  2.2885
 4172TIP3    H234076   2.054   0.893   8.284  0.6591  1.2184  0.9735
 4173TIP3   OH234077   1.881   1.612   7.679 -0.2025 -0.3224  0.1628
 4173TIP3    H134078   1.900   1.531   7.725 -1.3812 -0.9163 -0.3407
 4173TIP3    H234079   1.785   1.620   7.683 -0.0466  1.6036  1.1338
 4174TIP3   OH234080   4.722   1.248   2.143 -0.5960 -0.3843  0.4917
 4174TIP3    H134081   4.783   1.268   2.071 -0.6842 -0.4014  0.4127
 4174TIP3    H234082   4.666   1.324   2.149 -0.7577 -0.4936  0.3700
 4175TIP3   OH234083   3.755   0.855   0.630 -0.1771 -0.3416 -0.4897
 4175TIP3    H134084   3.805   0.821   0.705 -0.0957  0.8115  0.0033
 4175TIP3    H234085   3.710   0.933   0.665 -0.6366 -0.1523 -1.4784
 4176TIP3   OH234086   6.159   1.044   2.364 -0.2384 -0.3058  0.2728
 4176TIP3    H134087   6.204   1.034   2.448  0.2621  0.4235  0.1004
 4176TIP3    H234088   6.124   0.957   2.346  2.8010 -1.5003 -0.5484
 4177TIP3   OH234089   0.220   2.576   8.530 -0.0730  0.1799 -0.2299
 4177TIP3    H134090   0.192   2.656   8.574 -0.4151 -0.7277  1.3019
 4177TIP3    H234091   0.252   2.520   8.601  0.2557 -0.9943 -1.2694
 4178TIP3   OH234092   0.064   2.819   1.135  0.3298 -0.5414 -0.3507
 4178TIP3    H134093  -0.027   2.839   1.159  0.2490  0.2218 -1.2162
 4178TIP3    H234094   0.095   2.899   1.091  1.7071 -0.4649  0.7032
 4179TIP3   OH234095   5.839   1.070   8.602  0.0455 -0.0526  0.1969
 4179TIP3    H134096   5.905   1.017   8.646  0.1895  1.0125  1.3269
 4179TIP3    H234097   5.888   1.120   8.537  0.0929 -0.4414 -0.0661
 4180TIP3   OH234098   1.451   3.690   1.992 -0.0504  0.1031 -0.3969
 4180TIP3    H134099   1.360   3.696   1.964 -0.7127  1.8322  1.8707
 4180TIP3    H234100   1.491   3.772   1.962 -0.2434  1.0213  1.6959
 4181TIP3   OH234101   1.763   2.690   2.431  0.4243 -0.4304 -0.8863
 4181TIP3    H134102   1.773   2.785   2.437  0.8487 -0.5343  0.3318
 4181TIP3    H234103   1.669   2.676   2.424  0.3379  0.0613 -0.7145
 4182TIP3   OH234104   2.789   4.118   3.244  0.3004 -0.3523  0.2165
 4182TIP3    H134105   2.770   4.166   3.163  1.0382  0.8173  0.6984
 4182TIP3    H234106   2.881   4.091   3.234  0.8155  0.9126  1.1489
 4183TIP3   OH234107   3.660   1.513   3.432 -0.2361 -0.2784 -0.4107
 4183TIP3    H134108   3.752   1.485   3.432  0.0268  0.4549  1.2540
 4183TIP3    H234109   3.621   1.467   3.358  1.0975 -1.8532 -0.2012
 4184TIP3   OH234110   5.600   1.508   3.062  0.5175  0.1175  0.1707
 4184TIP3    H134111   5.665   1.462   3.011 -0.4078 -1.8290  0.6615
 4184TIP3    H234112   5.516   1.482   3.025 -0.0572  1.4152  0.4780
 4185TIP3   OH234113   5.184   3.709   0.574  0.0634  0.2866  0.2541
 4185TIP3    H134114   5.145   3.631   0.535 -1.6360  1.9890 -1.6657
 4185TIP3    H234115   5.190   3.772   0.503  0.9880  2.0823  1.8123
 4186TIP3   OH234116   0.833   1.899   1.460  0.7775 -0.4695 -0.8293
 4186TIP3    H134117   0.892   1.875   1.389  1.0319 -1.1196 -0.4123
 4186TIP3    H234118   0.824   1.994   1.454  1.2233 -0.4627 -1.3958
 4187TIP3   OH234119   0.562   2.365   1.070 -0.0195  0.1497  0.7702
 4187TIP3    H134120   0.470   2.341   1.084  0.0887  0.0942  1.3976
 4187TIP3    H234121   0.607   2.281   1.063 -0.0318  0.1760  0.3092
 4188TIP3   OH234122   3.833   4.960   0.588 -0.5453 -0.5452 -0.5688
 4188TIP3    H134123   3.832   4.990   0.680 -2.5742 -0.9587 -0.4065
 4188TIP3    H234124   3.838   5.041   0.537 -0.7767 -0.2268 -0.0982
 4189TIP3   OH234125   2.271   2.627   1.733  0.0959 -0.0979  0.1501
 4189TIP3    H134126   2.351   2.600   1.780 -0.2332  0.1560  0.8667
 4189TIP3    H234127   2.297   2.627   1.641  0.3035 -2.2194  0.1575
 4190TIP3   OH234128   2.579   2.263   2.881 -0.2297  0.1328 -0.1101
 4190TIP3    H134129   2.516   2.236   2.949 -1.0711 -0.2596 -1.0271
 4190TIP3    H234130   2.657   2.288   2.930 -0.0150 -2.2568  0.9056
 4191TIP3   OH234131   5.270   5.092   1.118  0.1772  0.5619  0.4804
 4191TIP3    H134132   5.304   5.156   1.055  0.3593  1.0962  1.1113
 4191TIP3    H234133   5.342   5.079   1.180  0.3308 -0.6640  0.0579
 4192TIP3   OH234134   6.687   1.333   8.896  0.5929  0.0327  0.4151
 4192TIP3    H134135   6.601   1.327   8.856  0.6706 -2.3189  0.4368
 4192TIP3    H234136   6.741   1.378   8.831 -0.4393  0.7266  0.0265
 4193TIP3   OH234137   4.994   2.900   1.250 -0.1240 -0.1943  0.2804
 4193TIP3    H134138   4.914   2.855   1.278  1.1584 -2.5368  0.3874
 4193TIP3    H234139   4.964   2.965   1.186 -1.9521 -2.3873 -1.2272
 4194TIP3   OH234140   4.357   3.218   0.133 -0.2614 -0.2303 -0.1774
 4194TIP3    H134141   4.433   3.266   0.167 -0.6029  0.5474 -0.4738
 4194TIP3    H234142   4.363   3.230   0.038 -1.8938  1.6647 -0.1035
 4195TIP3   OH234143   2.358   1.220   0.774 -0.0104 -0.6067 -0.0947
 4195TIP3    H134144   2.432   1.233   0.714 -0.3256  1.7225 -0.0944
 4195TIP3    H234145   2.281   1.244   0.723 -0.6168 -1.4780  0.3854
 4196TIP3   OH234146   3.040   5.293   8.568 -0.0578 -0.7749 -0.0435
 4196TIP3    H134147   3.116   5.314   8.514  0.6135 -0.2506  1.0731
 4196TIP3    H234148   2.974   5.263   8.506  1.0514 -1.2289 -1.0374
 4197TIP3   OH234149   3.834   5.659   8.163  0.7115  0.2031  0.3383
 4197TIP3    H134150   3.891   5.634   8.090 -0.5523 -1.5614 -0.1052
 4197TIP3    H234151   3.831   5.755   8.159 -0.2544  0.1522 -2.7191
 4198TIP3   OH234152   6.747   3.198   2.590 -0.1267 -0.0906  0.3969
 4198TIP3    H134153   6.824   3.225   2.639 -0.0269 -0.2117  0.3071
 4198TIP3    H234154   6.782   3.164   2.507 -0.2236 -0.8327  0.6546
 4199TIP3   OH234155   3.865   6.556   8.349 -0.1746 -0.1197 -0.3798
 4199TIP3    H134156   3.787   6.512   8.315  0.3010 -0.8878 -0.5128
 4199TIP3    H234157   3.936   6.494   8.332  0.1441 -0.4005  1.6894
 4200TIP3   OH234158   4.920   5.555   1.471  0.4872  0.4095  0.2364
 4200TIP3    H134159   4.987   5.486   1.468 -0.4007 -0.4933  0.4637
 4200TIP3    H234160   4.860   5.533   1.400 -0.9528 -0.3068  1.5988
 4201TIP3   OH234161   4.969   6.268   0.575 -0.2086 -0.2575 -0.6413
 4201TIP3    H134162   4.903   6.322   0.533 -1.2770 -0.2400  0.9631
 4201TIP3    H234163   4.982   6.308   0.661  0.3644 -1.4668 -0.1306
 4202TIP3   OH234164   6.381   3.985   1.138  0.2143 -0.6329  0.4579
 4202TIP3    H134165   6.402   4.074   1.108  0.2995 -0.8847 -0.2487
 4202TIP3    H234166   6.323   3.998   1.213 -0.8052  0.0067 -0.4134
 4203TIP3   OH234167   6.161   5.496   2.109  0.0684 -0.6060 -0.4213
 4203TIP3    H134168   6.087   5.461   2.160 -0.1118  1.0470  0.5667
 4203TIP3    H234169   6.121   5.564   2.054  0.8072  0.2522  0.0691
 4204TIP3   OH234170   6.735   6.580   1.935  0.2113 -0.0072  0.0510
 4204TIP3    H134171   6.791   6.649   1.898 -0.0525 -0.4854 -1.3077
 4204TIP3    H234172   6.782   6.499   1.916  0.3638 -0.2358  1.3560
 4205TIP3   OH234173   6.360   4.486   0.112 -0.2756 -0.1747 -0.4704
 4205TIP3    H134174   6.305   4.538   0.171  0.1193 -0.9156  0.5572
 4205TIP3    H234175   6.402   4.552   0.056 -0.2601  0.5903  0.4044
 4206TIP3   OH234176   5.216   3.946   3.412 -0.4367 -0.3628  0.6058
 4206TIP3    H134177   5.164   3.867   3.425 -0.7773 -0.2971 -0.3209
 4206TIP3    H234178   5.218   3.988   3.498  0.1236 -1.5978  1.2158
 4207TIP3   OH234179   1.473   6.578   1.687  0.4976  0.1781 -0.3535
 4207TIP3    H134180   1.509   6.667   1.691 -0.0697  0.3692  0.8624
 4207TIP3    H234181   1.549   6.521   1.695  0.8956  0.5391 -1.4075
 4208TIP3   OH234182   0.993   6.446   1.418  0.0371 -0.5717 -0.7072
 4208TIP3    H134183   0.950   6.511   1.474  0.6341 -0.1984 -0.6708
 4208TIP3    H234184   1.070   6.492   1.383  0.6417 -1.3517 -0.4306
 4209TIP3   OH234185   5.575   1.543   0.598 -0.3143 -0.5082 -0.0440
 4209TIP3    H134186   5.629   1.510   0.526  0.5901 -1.3055  0.9550
 4209TIP3    H234187   5.617   1.507   0.677 -1.7757 -0.3712  0.8260
 4210TIP3   OH234188   2.953   5.612   2.564 -0.0545  0.6845 -0.4664
 4210TIP3    H134189   2.930   5.703   2.543  0.2029  0.1908 -3.2955
 4210TIP3    H234190   3.016   5.587   2.497  0.1244 -1.5133  0.4350
 4211TIP3   OH234191   2.918   5.574   0.457  0.3188 -0.3755  0.9103
 4211TIP3    H134192   2.971   5.534   0.388  1.1067  0.1509  1.2057
 4211TIP3    H234193   2.975   5.639   0.497 -0.3369 -0.2531  1.6670
 4212TIP3   OH234194   3.365   2.196   1.067  0.1312 -0.3964  0.0989
 4212TIP3    H134195   3.284   2.162   1.106 -0.7597  0.3540 -1.0219
 4212TIP3    H234196   3.419   2.118   1.052 -0.9302 -1.0721 -0.3278
 4213TIP3   OH234197   3.330   2.751   8.529  0.0465  0.0913 -0.1048
 4213TIP3    H134198   3.290   2.667   8.550 -1.2175  0.7426  0.2146
 4213TIP3    H234199   3.312   2.806   8.605 -0.0081  0.9394 -0.7149
 4214TIP3   OH234200   1.636   5.195   8.893  0.0140 -0.5265  0.4745
 4214TIP3    H134201   1.691   5.134   8.842 -0.1194 -1.9091  1.9137
 4214TIP3    H234202   1.679   5.280   8.882  0.2427 -0.8359 -1.5461
 4215TIP3   OH234203   2.479   2.678   0.909 -0.1179 -0.0420  0.5530
 4215TIP3    H134204   2.424   2.671   0.831 -1.3853 -1.1119  1.5029
 4215TIP3    H234205   2.441   2.750   0.959  0.1772  0.0944  0.5849
 4216TIP3   OH234206   6.762   4.435   1.230 -0.5713 -0.1255 -0.2991
 4216TIP3    H134207   6.722   4.486   1.300  1.8392 -0.7574  1.6809
 4216TIP3    H234208   6.755   4.344   1.259  0.7347 -0.3749 -0.7095
 4217TIP3   OH234209   6.379   3.554   7.610 -0.4853  0.0254 -0.1292
 4217TIP3    H134210   6.454   3.559   7.551  1.0043 -0.3419  1.6422
 4217TIP3    H234211   6.386   3.469   7.652 -0.5254  0.9044  1.7680
 4218TIP3   OH234212   0.210   2.179   0.425 -0.6528 -0.3138 -0.2858
 4218TIP3    H134213   0.298   2.201   0.397 -0.4499 -1.9065 -1.0073
 4218TIP3    H234214   0.161   2.261   0.420  1.0977  0.9350  1.5232
 4219TIP3   OH234215   1.935   1.567   0.080 -0.6271  0.4588 -0.0802
 4219TIP3    H134216   1.881   1.571   0.158  1.3889 -0.7040  1.4753
 4219TIP3    H234217   1.878   1.527   0.013 -1.2537 -2.4046  1.9593
 4220TIP3   OH234218   0.922   4.860   8.540  0.1284  0.4754  0.4165
 4220TIP3    H134219   0.993   4.854   8.476 -0.1170 -1.5310  0.2863
 4220TIP3    H234220   0.849   4.897   8.491 -0.7457 -2.9826 -1.2063
 4221TIP3   OH234221   2.401   5.603   0.411  0.1807  0.3407 -0.3747
 4221TIP3    H134222   2.432   5.513   0.402 -1.5027 -0.1062 -2.4549
 4221TIP3    H234223   2.375   5.610   0.503  2.3753 -0.5528  0.3760
 4222TIP3   OH234224   5.036   6.706   8.243 -0.1554 -0.4279  0.9777
 4222TIP3    H134225   5.021   6.671   8.330 -0.8677 -1.4257  0.4666
 4222TIP3    H234226   4.980   6.654   8.185  1.8331 -1.2200 -0.3782
 4223TIP3   OH234227   4.067   1.734   1.253 -0.7011 -0.1770 -0.5427
 4223TIP3    H134228   4.118   1.696   1.325  2.4210  0.8497 -2.0523
 4223TIP3    H234229   4.007   1.796   1.296  2.0792  1.5241  1.1853
 4224TIP3   OH234230   3.017   1.261   0.673  0.1342  0.2365  0.0778
 4224TIP3    H134231   2.939   1.252   0.619  0.6914 -2.1489 -0.4346
 4224TIP3    H234232   2.986   1.301   0.754 -2.0273 -2.1943  0.5838
 4225TIP3   OH234233   5.337   4.040   0.004  0.4099  0.1276 -0.2758
 4225TIP3    H134234   5.294   3.986  -0.063 -0.3758  0.6323 -0.1933
 4225TIP3    H234235   5.292   4.124  -0.001  1.6891  0.8182 -0.4689
 4226TIP3   OH234236   4.334   0.779   7.989  0.1803 -0.4044 -0.2538
 4226TIP3    H134237   4.328   0.853   7.929 -0.5430 -2.0858 -2.3517
 4226TIP3    H234238   4.418   0.738   7.971  0.2982 -0.4949  0.4414
 4227TIP3   OH234239   2.744   2.529   2.267 -0.0961 -0.1177  0.2055
 4227TIP3    H134240   2.675   2.469   2.238 -0.5792  0.3970  0.2825
 4227TIP3    H234241   2.810   2.524   2.198 -0.5509 -0.0416 -0.2382
 4228TIP3   OH234242   0.779   2.152   1.100 -0.3024 -0.0862  0.2271
 4228TIP3    H134243   0.762   2.152   1.194  1.9723  1.2557  0.7036
 4228TIP3    H234244   0.796   2.060   1.079 -0.5605 -0.3617  1.1970
 4229TIP3   OH234245   4.921   3.422   2.772  0.1971 -0.0010 -0.1563
 4229TIP3    H134246   4.826   3.425   2.784  0.2095  1.3952 -0.2056
 4229TIP3    H234247   4.934   3.428   2.677  0.3412  3.3041 -0.0494
 4230TIP3   OH234248   0.456   5.059   2.407 -0.4840  0.2292  0.1111
 4230TIP3    H134249   0.432   4.966   2.405 -0.6725  0.2949 -0.6423
 4230TIP3    H234250   0.505   5.068   2.489  1.6868 -1.0745 -0.9170
 4231TIP3   OH234251   3.005   2.254   1.960  0.4257  0.4570  0.0633
 4231TIP3    H134252   2.955   2.194   2.014  1.9988  0.4632  1.6076
 4231TIP3    H234253   2.968   2.340   1.979 -0.4626  0.2373 -0.5833
 4232TIP3   OH234254   3.820   5.150   2.842 -0.3918 -0.3325 -0.2817
 4232TIP3    H134255   3.815   5.155   2.747 -0.3657 -0.8343 -0.3161
 4232TIP3    H234256   3.826   5.241   2.871  4.2014 -0.1710 -0.9861
 4233TIP3   OH234257   0.498   4.419   3.145 -0.4965 -0.1550 -0.2475
 4233TIP3    H134258   0.419   4.367   3.131 -1.1871  0.6375  0.5900
 4233TIP3    H234259   0.475   4.480   3.216  0.6542  0.5176 -0.4207
 4234TIP3   OH234260   5.812   3.033   8.090 -0.0284 -0.0500  0.0333
 4234TIP3    H134261   5.850   2.965   8.146  0.8975 -0.0998 -0.6355
 4234TIP3    H234262   5.829   3.003   8.001  1.9599  1.8626 -0.3174
 4235TIP3   OH234263   2.309   0.816   8.232 -0.1797 -0.8101 -0.7782
 4235TIP3    H134264   2.295   0.731   8.275  0.2830 -0.6875 -0.3771
 4235TIP3    H234265   2.391   0.804   8.184  0.3937 -0.2902  0.0543
 4236TIP3   OH234266   0.593   1.172   0.970 -0.2311  0.4582  0.2001
 4236TIP3    H134267   0.661   1.122   0.926  0.0090 -1.8354  2.9180
 4236TIP3    H234268   0.511   1.132   0.942 -0.2071  0.3693  0.2581
 4237TIP3   OH234269   0.434   4.559   0.490 -0.3317  0.0589  0.4613
 4237TIP3    H134270   0.391   4.521   0.413 -0.8144 -2.8443  2.0214
 4237TIP3    H234271   0.381   4.528   0.564  0.7716  1.7995  2.0545
 4238TIP3   OH234272   1.371   1.182   8.785  0.3593 -0.4096 -0.0710
 4238TIP3    H134273   1.345   1.139   8.866  2.0319  1.0108  1.3009
 4238TIP3    H234274   1.289   1.196   8.737 -0.8258 -0.1527  1.9478
 4239TIP3   OH234275   2.773   2.748   0.894 -0.6590  0.3281 -0.0370
 4239TIP3    H134276   2.826   2.706   0.826 -1.5572 -0.0988 -0.4916
 4239TIP3    H234277   2.686   2.710   0.883 -0.6354 -0.4390  1.9423
 4240TIP3   OH234278   0.325   1.547   0.203 -0.1141 -0.3780 -0.2187
 4240TIP3    H134279   0.395   1.602   0.238 -0.3607 -0.2429  0.0716
 4240TIP3    H234280   0.320   1.571   0.110  1.6834 -1.9523 -0.7774
 4241TIP3   OH234281   5.152   5.363   1.428  0.0610 -0.6547  0.6221
 4241TIP3    H134282   5.181   5.372   1.337  0.0662 -2.0877  0.4536
 4241TIP3    H234283   5.117   5.274   1.433 -1.7403  0.0464  1.5358
 4242TIP3   OH234284   3.330   4.730   8.779 -0.2064  0.3968  0.2199
 4242TIP3    H134285   3.381   4.696   8.704 -0.3944  1.3515 -0.3557
 4242TIP3    H234286   3.288   4.809   8.745 -3.6023 -1.2848  0.0967
 4243TIP3   OH234287   3.038   1.963   2.390 -0.1091  0.1027  0.6439
 4243TIP3    H134288   3.122   1.989   2.352 -0.1529  0.8618  1.0527
 4243TIP3    H234289   3.005   1.896   2.330 -0.1323  1.1972 -0.6086
 4244TIP3   OH234290   1.958   0.889   7.885  0.1741 -0.7294 -0.0801
 4244TIP3    H134291   1.941   0.975   7.847  0.4035 -0.9702 -0.7502
 4244TIP3    H234292   1.956   0.829   7.810 -0.4585 -1.3773  0.4378
 4245TIP3   OH234293   6.676   3.126   8.229  0.4680  0.3316  0.3579
 4245TIP3    H134294   6.664   3.066   8.156 -1.3017  0.6931  0.2914
 4245TIP3    H234295   6.740   3.190   8.198 -0.9229  1.0188 -1.2754
 4246TIP3   OH234296   6.445   5.637   3.229 -0.2457 -0.0613  0.1990
 4246TIP3    H134297   6.519   5.677   3.275 -1.2108  1.8384  0.2267
 4246TIP3    H234298   6.395   5.594   3.298 -0.9322  1.5736  0.7947
 4247TIP3   OH234299   1.893   1.852   8.615  0.2904  0.1683  0.4147
 4247TIP3    H134300   1.908   1.784   8.549 -1.4702  1.0230 -0.9605
 4247TIP3    H234301   1.861   1.805   8.692 -0.1205 -0.6340 -0.2314
 4248TIP3   OH234302   1.910   2.447   0.412 -0.0487  0.0590  0.2838
 4248TIP3    H134303   1.975   2.385   0.444  0.0646  0.8057  1.5873
 4248TIP3    H234304   1.926   2.453   0.318  0.6436 -1.0471  0.3181
 4249TIP3   OH234305   1.366   4.005   7.223 -0.0258 -0.0896  0.1064
 4249TIP3    H134306   1.294   4.069   7.224 -0.3424 -0.4444  0.2879
 4249TIP3    H234307   1.440   4.051   7.262 -0.2417  0.1814  0.2004
 4250TIP3   OH234308   0.724   1.323   7.994 -0.0432  0.2261 -0.1181
 4250TIP3    H134309   0.756   1.233   8.005  1.0572  0.3973 -1.5588
 4250TIP3    H234310   0.631   1.312   7.973 -0.3742 -0.4394  1.5607
 4251TIP3   OH234311   4.314   1.321   8.353 -0.5141 -0.1932  0.5480
 4251TIP3    H134312   4.284   1.250   8.296  0.5320  0.8879 -1.4452
 4251TIP3    H234313   4.295   1.290   8.442  0.5797 -3.2818 -0.1700
 4252TIP3   OH234314   4.739   3.654   0.144  0.2400 -0.0920 -0.5791
 4252TIP3    H134315   4.724   3.744   0.173 -0.5703 -0.4213  0.0774
 4252TIP3    H234316   4.832   3.638   0.162  0.4141  0.6341 -0.7932
 4253TIP3   OH234317   5.007   2.501   2.597 -0.2274  0.2049  0.4399
 4253TIP3    H134318   4.975   2.414   2.573 -1.5655  0.8974 -0.4842
 4253TIP3    H234319   4.928   2.556   2.597  0.3329  1.1053  2.6013
 4254TIP3   OH234320   5.204   4.763   2.696 -0.5145 -0.3170  0.4339
 4254TIP3    H134321   5.287   4.722   2.721 -0.9277 -1.1456  0.5061
 4254TIP3    H234322   5.156   4.771   2.779 -0.4148  0.3772  0.4253
 4255TIP3   OH234323   3.253   5.658   2.041  0.1484  0.0349  0.1205
 4255TIP3    H134324   3.330   5.708   2.067 -0.0931  0.4919 -0.0230
 4255TIP3    H234325   3.195   5.660   2.117  0.9405 -1.6929  0.8229
 4256TIP3   OH234326   3.060   4.695   2.803  0.2167 -0.3153  0.7128
 4256TIP3    H134327   3.136   4.672   2.748 -0.0938 -1.2742  0.6820
 4256TIP3    H234328   3.031   4.612   2.840 -3.0220 -0.6207 -2.0773
 4257TIP3   OH234329   2.527   2.557   1.829  0.0623 -0.3739 -0.1414
 4257TIP3    H134330   2.563   2.607   1.902 -0.8527 -1.7688  1.3518
 4257TIP3    H234331   2.602   2.539   1.773  0.4540  2.4813 -0.6960
 4258TIP3   OH234332   4.727   2.754   8.687  0.3609  0.3829  0.3265
 4258TIP3    H134333   4.799   2.814   8.710 -2.0366  3.1899  1.2209
 4258TIP3    H234334   4.695   2.786   8.603 -1.4270  0.9751  1.1642
 4259TIP3   OH234335   0.267   5.444   1.437  0.2358  0.4192  0.3050
 4259TIP3    H134336   0.281   5.352   1.458 -0.2302  0.3585  0.3558
 4259TIP3    H234337   0.351   5.486   1.456  1.0673 -0.3000 -1.5878
 4260TIP3   OH234338   0.435   1.371   3.330 -0.0546 -0.6871  0.7326
 4260TIP3    H134339   0.502   1.302   3.332  1.2825  0.2005 -3.3739
 4260TIP3    H234340   0.356   1.329   3.364  0.9290 -4.0266 -0.6546
 4261TIP3   OH234341   2.484   0.809   2.175  0.0524 -0.1020 -1.3143
 4261TIP3    H134342   2.488   0.873   2.246 -1.7730 -2.2118  0.8718
 4261TIP3    H234343   2.572   0.810   2.137  1.3758  0.5584  1.5257
 4262TIP3   OH234344   0.337   3.763   1.546  0.4881 -0.2471  0.4319
 4262TIP3    H134345   0.317   3.849   1.583  0.1600 -0.8819  1.7656
 4262TIP3    H234346   0.297   3.766   1.459  2.1092  1.6199 -0.3428
 4263TIP3   OH234347   2.740   2.998   8.177 -0.3044 -0.1147 -0.0547
 4263TIP3    H134348   2.759   2.914   8.218 -1.4509 -3.0987 -4.8771
 4263TIP3    H234349   2.657   3.025   8.216  0.3082 -0.8500  1.9155
 4264TIP3   OH234350   6.173   5.257   8.456 -0.0442 -0.4165  0.4338
 4264TIP3    H134351   6.153   5.295   8.541  0.5680 -1.1795  0.9270
 4264TIP3    H234352   6.088   5.254   8.411 -0.4063 -0.1988  1.0908
 4265TIP3   OH234353   5.552   0.593   1.228 -0.0564 -0.2658 -0.5228
 4265TIP3    H134354   5.549   0.547   1.313  1.7264  1.0362  0.3170
 4265TIP3    H234355   5.527   0.683   1.249  0.7560  0.1507 -1.2919
 4266TIP3   OH234356   5.153   5.472   2.983  0.7614  0.3664 -0.1488
 4266TIP3    H134357   5.175   5.381   3.001  1.3619  0.6421  0.5385
 4266TIP3    H234358   5.236   5.514   2.962  0.5596  0.8722  0.0492
 4267TIP3   OH234359   0.523   0.143   8.371 -0.6359 -0.6957  0.1546
 4267TIP3    H134360   0.471   0.222   8.356 -1.5351 -1.7037 -2.6163
 4267TIP3    H234361   0.590   0.146   8.303  0.7691 -1.2542  1.4423
 4268TIP3   OH234362   0.626   3.746   1.503 -0.3938 -0.4051 -0.3111
 4268TIP3    H134363   0.645   3.805   1.576 -0.7276  0.9130 -1.2322
 4268TIP3    H234364   0.535   3.719   1.517 -0.1576 -0.9298  0.2552
 4269TIP3   OH234365   4.635   1.638   8.157  0.0508 -0.1220 -0.5535
 4269TIP3    H134366   4.607   1.702   8.223 -0.6490 -1.9577  1.0367
 4269TIP3    H234367   4.555   1.587   8.139  0.6207 -0.6521 -1.6572
 4270TIP3   OH234368   6.650   4.595   1.414 -0.3781 -0.4486 -0.0115
 4270TIP3    H134369   6.596   4.674   1.404  1.2529  0.8403  0.9314
 4270TIP3    H234370   6.634   4.566   1.503  1.0938  0.4524  0.5742
 4271TIP3   OH234371   0.313   1.281   0.140  0.2341  0.5579  0.4232
 4271TIP3    H134372   0.255   1.235   0.201 -0.0763 -0.8494 -0.8417
 4271TIP3    H234373   0.337   1.362   0.184 -1.6328  0.5534  1.5423
 4272TIP3   OH234374   0.310   5.371   1.961  0.5892  0.0403 -0.4784
 4272TIP3    H134375   0.394   5.400   1.924  0.8861 -1.2239 -0.8638
 4272TIP3    H234376   0.330   5.348   2.051  0.2565  1.3974 -0.0349
 4273TIP3   OH234377   5.167   2.775   0.291 -0.2268 -0.3267  0.1504
 4273TIP3    H134378   5.072   2.785   0.302 -0.5316 -1.1269 -1.5566
 4273TIP3    H234379   5.179   2.684   0.266  0.6436  0.4943 -2.7281
 4274TIP3   OH234380   5.402   4.432   1.273  0.1133  0.4657  0.4361
 4274TIP3    H134381   5.416   4.510   1.327 -0.9333  0.4542  0.7403
 4274TIP3    H234382   5.377   4.364   1.335 -0.2520  0.2259  0.0299
 4275TIP3   OH234383   5.437   6.525   8.172  0.5668  0.3488 -0.2983
 4275TIP3    H134384   5.512   6.491   8.221  1.5162  0.7338 -1.4178
 4275TIP3    H234385   5.466   6.522   8.080 -2.8812 -5.1538 -1.6716
 4276TIP3   OH234386   0.941   2.639   1.577  0.0899 -0.3234  0.2844
 4276TIP3    H134387   0.959   2.576   1.646  0.9546  0.2131  0.5772
 4276TIP3    H234388   1.023   2.689   1.569  0.1682 -0.6629 -1.4322
 4277TIP3   OH234389   2.601   0.660   7.660 -0.2555 -0.0212  0.1762
 4277TIP3    H134390   2.632   0.571   7.641 -1.7539 -0.8629  1.4069
 4277TIP3    H234391   2.670   0.698   7.714  0.1118 -0.6804  0.1920
 4278TIP3   OH234392   5.169   3.189   1.036 -0.1168  0.4533  0.3233
 4278TIP3    H134393   5.203   3.161   0.951  1.2930  1.7008  0.4177
 4278TIP3    H234394   5.075   3.174   1.031 -0.1823  1.2233 -1.7645
 4279TIP3   OH234395   6.578   0.677   1.659  0.3086 -0.0438  0.4583
 4279TIP3    H134396   6.638   0.737   1.615 -0.0204  0.8120  1.1469
 4279TIP3    H234397   6.543   0.728   1.732 -1.7782 -0.2701 -0.3065
 4280TIP3   OH234398   2.366   0.766   7.595 -0.2230 -0.0919 -0.0200
 4280TIP3    H134399   2.359   0.719   7.512 -0.0887  0.6870 -0.4865
 4280TIP3    H234400   2.444   0.731   7.637 -0.9511 -1.3443  0.3414
 4281TIP3   OH234401   0.904   5.241   2.592 -0.8532  0.0046  0.5622
 4281TIP3    H134402   0.812   5.268   2.597 -1.0120 -0.6001  0.9179
 4281TIP3    H234403   0.951   5.310   2.639 -0.9911  0.8937 -0.5449
 4282TIP3   OH234404   5.487   3.054   0.950 -0.2277 -0.5792 -0.4194
 4282TIP3    H134405   5.526   3.048   1.037  2.3427 -0.4710 -1.4663
 4282TIP3    H234406   5.461   2.964   0.929  0.8485 -0.9474 -0.2388
 4283TIP3   OH234407   3.643   2.018   7.987  0.3971 -0.0056  0.1289
 4283TIP3    H134408   3.666   2.059   7.904  0.7116 -1.7760 -0.6923
 4283TIP3    H234409   3.548   2.008   7.984  0.5675 -1.6724 -0.8384
 4284TIP3   OH234410   3.132   3.663   8.086  0.0964 -0.1866 -0.1697
 4284TIP3    H134411   3.185   3.699   8.015 -1.2534  0.3713 -0.9441
 4284TIP3    H234412   3.051   3.635   8.043  0.9185 -4.0334  0.4004
 4285TIP3   OH234413   2.640   3.214   2.533  0.0293 -0.0142 -0.4556
 4285TIP3    H134414   2.607   3.180   2.616 -0.6949 -0.1503 -0.7865
 4285TIP3    H234415   2.660   3.306   2.551  0.9259 -0.3204  0.1461
 4286TIP3   OH234416   3.211   3.486   0.697 -0.1779  0.8834 -0.1585
 4286TIP3    H134417   3.186   3.395   0.716 -0.3189  0.4091 -2.2968
 4286TIP3    H234418   3.133   3.524   0.657 -0.2716  2.1240  1.1612
 4287TIP3   OH234419   3.705   1.753   1.134 -0.0387 -0.0937  0.0983
 4287TIP3    H134420   3.789   1.731   1.094  1.4021  2.3440  1.5200
 4287TIP3    H234421   3.690   1.685   1.199  1.1584 -0.2234  0.2495
 4288TIP3   OH234422   5.520   5.039   7.386 -0.6867 -0.1264 -0.2040
 4288TIP3    H134423   5.465   5.068   7.459  0.7316  0.6338  0.6250
 4288TIP3    H234424   5.526   4.944   7.397 -1.6673 -0.1988 -0.2057
 4289TIP3   OH234425   1.982   3.820   8.610  0.0336 -0.7864 -0.0381
 4289TIP3    H134426   2.046   3.888   8.628  0.5370 -1.6667  1.7125
 4289TIP3    H234427   1.904   3.867   8.580  0.5536  0.5027  0.5610
 4290TIP3   OH234428   6.603   2.235   1.037  0.7872 -0.7595 -0.4861
 4290TIP3    H134429   6.533   2.298   1.052 -0.6780 -2.0673 -1.5116
 4290TIP3    H234430   6.677   2.288   1.007 -0.2096  0.5297 -0.7372
 4291TIP3   OH234431   1.700   2.463   1.921  0.5293 -0.2166 -0.1829
 4291TIP3    H134432   1.779   2.421   1.954 -0.6362 -1.5810  1.0081
 4291TIP3    H234433   1.708   2.554   1.949  1.7280 -0.2915 -0.2249
 4292TIP3   OH234434   3.230   2.703   2.636  1.0217  0.4868  0.4336
 4292TIP3    H134435   3.162   2.636   2.643  1.3838  0.2957  3.0188
 4292TIP3    H234436   3.231   2.746   2.722  1.7827  2.8807 -0.6832
 4293TIP3   OH234437   6.176   3.652   0.923 -1.0472 -0.2749 -0.1595
 4293TIP3    H134438   6.147   3.643   0.832  0.3232  4.7534 -1.3794
 4293TIP3    H234439   6.095   3.668   0.972 -1.5548 -0.3571 -0.9493
 4294TIP3   OH234440   2.989   6.673   8.469 -0.0935 -0.1856 -0.3408
 4294TIP3    H134441   3.039   6.742   8.424 -0.0746  0.8547  1.1859
 4294TIP3    H234442   3.044   6.596   8.465  0.4336  0.2174 -1.0242
 4295TIP3   OH234443   5.963   5.564   8.139  0.1848 -0.1368 -0.1984
 4295TIP3    H134444   5.937   5.531   8.054 -0.5828 -1.5513  0.5566
 4295TIP3    H234445   5.882   5.596   8.179  0.4087 -0.1627  0.2865
 4296TIP3   OH234446   6.640   3.204   0.518  0.1960  0.0393 -0.2902
 4296TIP3    H134447   6.636   3.117   0.478 -0.8251  0.6171 -1.4970
 4296TIP3    H234448   6.628   3.265   0.445 -2.7747  1.1345  0.9774
 4297TIP3   OH234449   2.460   2.352   1.611 -0.2921  0.1785  0.5166
 4297TIP3    H134450   2.453   2.395   1.696 -0.7320  1.0511  0.0511
 4297TIP3    H234451   2.503   2.269   1.630  2.7053  1.7323  1.1476
 4298TIP3   OH234452   0.228   6.752   0.584  0.1096 -0.5352  0.2156
 4298TIP3    H134453   0.273   6.764   0.667 -0.1968 -1.4179  0.5175
 4298TIP3    H234454   0.142   6.790   0.597 -0.2139 -1.3627  0.5694
 4299TIP3   OH234455   2.136   0.524   0.745 -0.0452 -0.2567  0.1086
 4299TIP3    H134456   2.044   0.552   0.744 -0.2473 -0.8804  0.6066
 4299TIP3    H234457   2.168   0.551   0.831  0.4400  0.5855 -0.3336
 4300TIP3   OH234458   1.698   1.301   1.256  0.2995  0.1689 -0.0795
 4300TIP3    H134459   1.624   1.273   1.202 -0.3488  0.4703  0.6253
 4300TIP3    H234460   1.722   1.387   1.221 -1.4333  1.3123  1.3148
 4301TIP3   OH234461   0.424   3.935   0.397 -0.0863  0.3411  0.3784
 4301TIP3    H134462   0.448   4.022   0.429 -0.0342  1.0378 -1.4321
 4301TIP3    H234463   0.353   3.907   0.455  1.4111  0.5581  2.4257
 4302TIP3   OH234464   1.059   5.448   8.771  0.0050  0.3857  0.1349
 4302TIP3    H134465   1.035   5.521   8.715  0.9946  0.4206 -0.2747
 4302TIP3    H234466   1.098   5.384   8.710 -0.5638 -0.3521  0.5276
 4303TIP3   OH234467   1.385   4.159   3.094 -0.5632 -0.2530  0.0706
 4303TIP3    H134468   1.309   4.167   3.036 -1.0615  0.9090  0.8449
 4303TIP3    H234469   1.450   4.218   3.055 -0.1389 -1.0422 -0.4402
 4304TIP3   OH234470   2.195   4.093   8.144  0.1732  0.3346  0.1284
 4304TIP3    H134471   2.220   4.007   8.110  0.2285 -0.5561  2.2510
 4304TIP3    H234472   2.269   4.149   8.121  0.1152 -0.1275 -1.3442
 4305TIP3   OH234473   0.474   2.443   8.204 -0.3545  0.3642 -0.1009
 4305TIP3    H134474   0.525   2.479   8.276 -2.3876  2.0398  0.6087
 4305TIP3    H234475   0.526   2.462   8.126  1.0254  0.1565  0.7328
 4306TIP3   OH234476   1.454   5.195   8.673 -0.5425  0.4025 -0.0127
 4306TIP3    H134477   1.492   5.111   8.649 -2.2915 -0.8775  1.4633
 4306TIP3    H234478   1.488   5.213   8.761 -0.3699  1.1402 -0.2181
 4307TIP3   OH234479   1.618   2.244   2.477  0.0101 -0.9566  0.6701
 4307TIP3    H134480   1.608   2.313   2.544 -0.4707 -0.2729 -0.0917
 4307TIP3    H234481   1.648   2.291   2.399 -1.0786 -1.4868 -0.0907
 4308TIP3   OH234482   2.606   5.423   7.949 -0.7558 -0.2713  0.3399
 4308TIP3    H134483   2.598   5.517   7.966 -0.5091  0.2892 -2.2559
 4308TIP3    H234484   2.519   5.397   7.917  0.4626  0.4026 -4.2024
 4309TIP3   OH234485   3.984   3.832   2.324  0.7103 -0.1364  0.4954
 4309TIP3    H134486   4.061   3.793   2.284  1.0872  0.4092  0.6833
 4309TIP3    H234487   4.017   3.907   2.373  0.2845 -0.8378  1.9108
 4310TIP3   OH234488   3.926   5.998   2.427  0.3900 -0.0020 -0.5760
 4310TIP3    H134489   3.983   5.921   2.431 -1.1864 -1.2495 -1.4246
 4310TIP3    H234490   3.873   5.993   2.506  2.5351  2.1249  1.1402
 4311TIP3   OH234491   4.928   3.925   2.712 -0.1415  0.4965 -0.3422
 4311TIP3    H134492   5.014   3.961   2.690  0.3669 -1.0380 -1.0083
 4311TIP3    H234493   4.931   3.912   2.806  0.1096  1.0620 -0.2682
 4312TIP3   OH234494   6.688   4.883   8.034  0.2449 -0.1585  0.1548
 4312TIP3    H134495   6.678   4.788   8.039  0.6165 -0.4986 -3.1723
 4312TIP3    H234496   6.600   4.915   8.017 -0.0034  0.2227  2.0070
 4313TIP3   OH234497   2.339   6.268   8.818  0.5678 -0.7868  0.2626
 4313TIP3    H134498   2.391   6.331   8.768  1.6375 -1.5674  0.3551
 4313TIP3    H234499   2.360   6.286   8.910  3.5316 -3.3486  0.2443
 4314TIP3   OH234500   4.712   6.755   3.077  0.1237  0.5237  0.2179
 4314TIP3    H134501   4.678   6.799   2.999  2.7471  2.0150 -0.2357
 4314TIP3    H234502   4.667   6.797   3.150 -1.6929 -0.2414 -0.4108
 4315TIP3   OH234503   6.238   3.222   8.283 -0.1508  0.0078 -0.1116
 4315TIP3    H134504   6.158   3.198   8.330 -1.3868  2.5405 -0.7251
 4315TIP3    H234505   6.209   3.237   8.193  1.1012  0.5245 -0.4554
 4316TIP3   OH234506   6.771   1.724   2.290  0.4167 -0.6189 -0.8901
 4316TIP3    H134507   6.863   1.747   2.276 -0.0187  1.6870 -0.3740
 4316TIP3    H234508   6.732   1.802   2.331 -1.6288 -1.7692 -0.4830
 4317TIP3   OH234509   2.264   2.059   8.791  0.0987 -0.2015  0.1942
 4317TIP3    H134510   2.266   1.991   8.723 -0.0512 -0.3711  0.3601
 4317TIP3    H234511   2.299   2.016   8.869  1.8053  0.4488 -0.1823
 4318TIP3   OH234512   3.661   1.060   2.429  0.0536 -0.0003 -0.4859
 4318TIP3    H134513   3.732   0.996   2.429  1.4117  1.4333 -1.2695
 4318TIP3    H234514   3.700   1.139   2.393 -1.6996  1.1439 -0.0076
 4319TIP3   OH234515   3.929   6.633   0.862 -0.3592 -0.0107  0.0904
 4319TIP3    H134516   3.918   6.648   0.768 -0.5206  0.3379  0.1607
 4319TIP3    H234517   4.023   6.639   0.876 -0.4719  2.4698  0.3311
 4320TIP3   OH234518   1.210   5.630   1.371  0.4355 -0.6873  0.1538
 4320TIP3    H134519   1.257   5.578   1.437  1.2674 -1.6499 -1.1431
 4320TIP3    H234520   1.120   5.635   1.403  0.9944 -0.4109  1.7641
 4321TIP3   OH234521   5.808   3.039   2.427  0.3478  0.2891 -0.2700
 4321TIP3    H134522   5.796   3.010   2.337 -1.8272 -0.3165  0.1685
 4321TIP3    H234523   5.903   3.054   2.435  0.6422 -0.1026 -2.4854
 4322TIP3   OH234524   5.396   3.466   2.738  0.8961  0.3516 -0.1879
 4322TIP3    H134525   5.308   3.434   2.756  0.2562  1.1145 -1.7642
 4322TIP3    H234526   5.451   3.388   2.737 -0.0468 -0.3182 -0.7865
 4323TIP3   OH234527   2.521   5.310   8.812  0.5678  0.3167 -0.9504
 4323TIP3    H134528   2.606   5.289   8.850 -0.3782  0.7167  1.6274
 4323TIP3    H234529   2.488   5.383   8.865 -0.6484  1.3781 -3.0128
 4324TIP3   OH234530   1.413   5.591   2.078  0.0451  0.3306 -0.0687
 4324TIP3    H134531   1.482   5.541   2.121 -0.2823  0.2127  0.3251
 4324TIP3    H234532   1.437   5.591   1.986 -0.4162 -1.3536 -0.2302
 4325TIP3   OH234533   2.403   2.385   8.354 -0.1130  0.2238 -0.1473
 4325TIP3    H134534   2.449   2.467   8.338  1.2784 -0.8578 -2.2100
 4325TIP3    H234535   2.392   2.347   8.267 -3.0603 -0.6056  0.4938
 4326TIP3   OH234536   5.130   2.630   0.778  0.1212 -0.2082  0.7548
 4326TIP3    H134537   5.196   2.622   0.847 -0.3094 -0.2186  1.1648
 4326TIP3    H234538   5.100   2.540   0.763  1.8253 -0.5596 -1.0450
 4327TIP3   OH234539   4.115   3.986   3.173 -0.4827  0.0361  0.4531
 4327TIP3    H134540   4.035   4.033   3.146 -0.6176  0.5708  1.7379
 4327TIP3    H234541   4.127   4.010   3.265  2.5641  1.9811 -0.3020
 4328TIP3   OH234542   5.960   3.358   0.350  0.2989  0.6102 -0.2129
 4328TIP3    H134543   5.940   3.360   0.443 -0.0840  0.4501 -0.2915
 4328TIP3    H234544   6.055   3.368   0.346  0.2736  1.0567  0.1762
 4329TIP3   OH234545   0.735   2.851   8.501  0.1983 -0.2765  0.0584
 4329TIP3    H134546   0.821   2.863   8.541 -0.2524 -1.0004  1.2794
 4329TIP3    H234547   0.736   2.910   8.425  1.8478 -0.4546 -0.0970
 4330TIP3   OH234548   5.026   3.203   1.457 -0.0180  0.1131 -0.4045
 4330TIP3    H134549   4.987   3.264   1.395  1.2980  1.2615 -0.1548
 4330TIP3    H234550   5.103   3.168   1.411  0.1244 -0.1618  0.0348
 4331TIP3   OH234551   2.399   1.873   2.852  0.0789  0.0767  0.1347
 4331TIP3    H134552   2.402   1.789   2.898 -0.4559 -0.2621 -0.4423
 4331TIP3    H234553   2.393   1.938   2.922  1.3345 -0.2980  0.6205
 4332TIP3   OH234554   4.150   0.864   1.968 -0.2206  0.0523 -0.2007
 4332TIP3    H134555   4.122   0.835   1.881 -1.5931  2.0062 -0.4871
 4332TIP3    H234556   4.245   0.848   1.970 -0.3497 -1.0454 -1.6142
 4333TIP3   OH234557   2.835   2.482   1.991 -0.0611  0.0994 -0.1344
 4333TIP3    H134558   2.777   2.420   1.947  1.4850 -0.7636 -1.0486
 4333TIP3    H234559   2.862   2.543   1.923  1.9495 -0.9434 -0.3723
 4334TIP3   OH234560   4.628   6.571   2.826 -0.3027 -0.0026 -0.0397
 4334TIP3    H134561   4.674   6.552   2.908 -0.3810 -2.8594 -0.5480
 4334TIP3    H234562   4.545   6.609   2.853  0.5349  1.1225  1.0756
 4335TIP3   OH234563   1.121   2.936   1.268  0.0007  0.4845 -0.8821
 4335TIP3    H134564   1.207   2.969   1.242  1.1992  0.7160  2.7701
 4335TIP3    H234565   1.059   3.001   1.235  1.5207  1.8292 -1.2111
 4336TIP3   OH234566   6.630   6.342   2.768  0.2569  0.2878  0.1715
 4336TIP3    H134567   6.707   6.332   2.824 -0.5010 -0.1994  1.1658
 4336TIP3    H234568   6.560   6.368   2.828 -0.7170 -0.8240 -0.4360
 4337TIP3   OH234569   5.971   6.414   0.327  0.0542 -0.4489  0.1551
 4337TIP3    H134570   6.000   6.360   0.253 -1.6434 -1.3066  0.0676
 4337TIP3    H234571   5.965   6.502   0.292 -0.6752 -0.8394 -0.7367
 4338TIP3   OH234572   2.553   0.384   0.934  0.6094 -0.0383  0.0315
 4338TIP3    H134573   2.593   0.308   0.894  0.1730 -1.0536  1.4364
 4338TIP3    H234574   2.578   0.379   1.027  0.7176  1.6289  0.1278
 4339TIP3   OH234575   1.232   4.150   1.711  0.3675 -0.2773 -0.2703
 4339TIP3    H134576   1.146   4.187   1.732  0.7011  1.1701 -1.3494
 4339TIP3    H234577   1.214   4.084   1.644  0.2890  1.8164 -2.4461
 4340TIP3   OH234578   0.260   0.286   8.150  0.1167 -0.1450  0.7999
 4340TIP3    H134579   0.348   0.253   8.128 -0.1530 -1.4076  1.5330
 4340TIP3    H234580   0.276   0.358   8.210  0.6510 -0.4515  1.0310
 4341TIP3   OH234581   6.095   0.042   8.822  0.2651  0.4136  0.2608
 4341TIP3    H134582   6.111  -0.046   8.789 -0.5591 -0.4034  1.8935
 4341TIP3    H234583   6.181   0.084   8.823  0.5479 -0.0969 -1.2286
 4342TIP3   OH234584   4.353   6.600   8.760  0.1348 -0.2330 -0.0291
 4342TIP3    H134585   4.307   6.609   8.843 -1.5560  0.2550 -0.9827
 4342TIP3    H234586   4.428   6.660   8.769 -1.4950  1.9035  0.1868
 4343TIP3   OH234587   2.616   1.439   3.131 -0.2105 -0.0164 -0.3296
 4343TIP3    H134588   2.582   1.482   3.053  3.3423  0.6849 -1.6907
 4343TIP3    H234589   2.592   1.347   3.121  0.4711 -0.0025 -2.5132
 4344TIP3   OH234590   2.655   0.841   1.806 -0.0633 -0.6466 -0.2291
 4344TIP3    H134591   2.637   0.780   1.877  0.1870 -0.9273 -0.4042
 4344TIP3    H234592   2.745   0.821   1.780  0.2942  0.2978  0.2114
 4345TIP3   OH234593   5.381   2.137   3.072  0.0354 -0.2801  0.5255
 4345TIP3    H134594   5.404   2.067   3.133 -2.5258 -2.3346 -0.6663
 4345TIP3    H234595   5.456   2.144   3.014  0.7887 -1.2569  1.3484
 4346TIP3   OH234596   4.865   2.872   7.460 -0.1917  0.1415  0.5036
 4346TIP3    H134597   4.815   2.902   7.384  1.4991  0.8092 -0.4095
 4346TIP3    H234598   4.870   2.948   7.517 -1.2713 -0.2958  1.1970
 4347TIP3   OH234599   3.015   0.346   1.887  0.0569 -0.6841 -0.2882
 4347TIP3    H134600   3.051   0.415   1.942  0.8220 -0.4973 -1.0017
 4347TIP3    H234601   2.960   0.294   1.946  0.8453 -0.4874  0.6438
 4348TIP3   OH234602   6.168   2.038   8.917  0.2415  0.3086 -0.1703
 4348TIP3    H134603   6.136   2.120   8.880  0.1100  1.2136  1.8610
 4348TIP3    H234604   6.150   2.045   9.010  3.6852 -0.3592  0.6730
 4349TIP3   OH234605   2.618   4.422   8.066  0.1025 -0.6482  0.3144
 4349TIP3    H134606   2.682   4.428   7.995 -1.0237  0.4712 -0.6397
 4349TIP3    H234607   2.570   4.504   8.062 -0.9381 -1.1791  1.4594
 4350TIP3   OH234608   2.309   2.039   8.080  0.0128  0.2945  0.7932
 4350TIP3    H134609   2.214   2.036   8.068 -0.0686  0.1155  1.4514
 4350TIP3    H234610   2.345   2.006   7.997 -0.5247 -0.9168  1.0311
 4351TIP3   OH234611   0.933   3.785   8.885 -0.2071  0.3939  0.5473
 4351TIP3    H134612   0.913   3.870   8.846 -0.3704  0.3700  0.5759
 4351TIP3    H234613   1.015   3.759   8.845 -1.8319 -1.0472 -2.1254
 4352TIP3   OH234614   6.445   6.671   1.766  0.0756 -0.7307 -0.3197
 4352TIP3    H134615   6.418   6.603   1.704  0.3203 -0.2168 -0.9867
 4352TIP3    H234616   6.395   6.650   1.845 -0.8986 -0.8815 -0.9566
 4353TIP3   OH234617   6.424   3.901   1.716 -0.6381 -0.2116  0.1963
 4353TIP3    H134618   6.442   3.982   1.763 -1.8177 -0.3617  0.9384
 4353TIP3    H234619   6.355   3.924   1.653  0.1532 -0.2744 -0.7174
 4354TIP3   OH234620   2.694   2.206   3.294 -0.2457 -0.0293  0.0561
 4354TIP3    H134621   2.662   2.281   3.243  0.5236  0.7325  0.6716
 4354TIP3    H234622   2.720   2.142   3.228 -1.6788 -0.0942 -0.4673
 4355TIP3   OH234623   3.328   1.813   2.358  0.0464 -0.4422 -0.6193
 4355TIP3    H134624   3.385   1.887   2.336  3.4870 -1.7337  2.8180
 4355TIP3    H234625   3.364   1.739   2.310  0.3477 -0.9674  0.3842
 4356TIP3   OH234626   6.283   3.460   8.735  0.2506 -0.0180  0.3096
 4356TIP3    H134627   6.193   3.493   8.732  0.0769 -0.1994  2.3117
 4356TIP3    H234628   6.275   3.369   8.706  0.1124  0.4683 -1.3041
 4357TIP3   OH234629   0.693   5.168   8.695 -0.2878 -0.1579  0.4031
 4357TIP3    H134630   0.756   5.213   8.638 -0.2745 -1.6951 -0.8593
 4357TIP3    H234631   0.747   5.109   8.747 -0.5147 -0.2652  0.5162
 4358TIP3   OH234632   4.306   5.593   0.737  0.1327 -0.9692 -0.1663
 4358TIP3    H134633   4.249   5.669   0.726  0.3995 -0.6127  0.8630
 4358TIP3    H234634   4.360   5.613   0.813  0.2772 -2.1416  0.0679
 4359TIP3   OH234635   6.367   0.831   1.864  0.1366  0.1648 -0.2110
 4359TIP3    H134636   6.353   0.741   1.893 -0.2776  0.6268  1.0979
 4359TIP3    H234637   6.423   0.870   1.932  0.7517  0.7577 -1.0305
 4360TIP3   OH234638   1.862   5.862   1.802  0.2485  0.0868  0.4168
 4360TIP3    H134639   1.926   5.928   1.774 -0.1899  0.4258  0.1886
 4360TIP3    H234640   1.808   5.908   1.867 -0.8837  0.3759 -0.6890
 4361TIP3   OH234641   3.282   4.733   0.769 -0.6561  0.2338  0.1276
 4361TIP3    H134642   3.215   4.791   0.732  0.2853  1.9187  0.9101
 4361TIP3    H234643   3.326   4.787   0.835  1.6256 -0.6876 -0.5284
 4362TIP3   OH234644   3.775   2.559   8.621  0.1094 -0.2687 -0.0333
 4362TIP3    H134645   3.848   2.615   8.651  0.7578 -1.3938  0.5443
 4362TIP3    H234646   3.816   2.475   8.602 -0.7570 -0.3814 -1.5116
 4363TIP3   OH234647   0.882   4.024   8.777 -0.1246 -0.5461 -0.1396
 4363TIP3    H134648   0.798   4.069   8.785 -0.7045 -0.9634 -2.9896
 4363TIP3    H234649   0.947   4.093   8.793 -1.0126  0.7258 -1.7465
 4364TIP3   OH234650   5.011   3.093   7.341 -0.0302  0.0048  0.3376
 4364TIP3    H134651   5.099   3.120   7.365 -0.3795  1.3874  0.1295
 4364TIP3    H234652   5.017   3.072   7.248  0.2292 -0.6104  0.4880
 4365TIP3   OH234653   6.350   5.551   8.533  0.2684  0.7694 -0.4376
 4365TIP3    H134654   6.369   5.458   8.546 -0.8693  0.3847 -1.3297
 4365TIP3    H234655   6.378   5.593   8.614  0.3296 -0.4197  0.1786
 4366TIP3   OH234656   0.325   0.877   8.837 -0.1456 -0.5170 -0.2246
 4366TIP3    H134657   0.361   0.871   8.926 -0.9906  0.5995  0.2306
 4366TIP3    H234658   0.231   0.860   8.849 -0.3798  0.3303 -0.7791
 4367TIP3   OH234659   2.377   4.252   1.452  0.2658 -0.1246  0.1707
 4367TIP3    H134660   2.435   4.218   1.520  0.3405 -0.5713 -0.1068
 4367TIP3    H234661   2.423   4.328   1.416  1.6188 -1.5862 -1.3601
 4368TIP3   OH234662   0.553   4.562   7.730 -0.2745  0.3428  0.3246
 4368TIP3    H134663   0.491   4.631   7.753 -1.3837 -0.1428 -1.0369
 4368TIP3    H234664   0.498   4.487   7.708  0.9034 -0.9363  1.5924
 4369TIP3   OH234665   0.366   2.293   1.959 -0.4341  0.3248 -0.1215
 4369TIP3    H134666   0.338   2.276   2.049 -1.6565  1.9418 -0.1368
 4369TIP3    H234667   0.444   2.348   1.968  0.1730 -0.5347 -0.0656
 4370TIP3   OH234668   1.639   5.273   1.828 -0.2919  0.4843  0.3561
 4370TIP3    H134669   1.714   5.324   1.858  0.9287 -0.6576 -0.6214
 4370TIP3    H234670   1.674   5.185   1.812 -2.4724 -0.9795  2.7490
 4371TIP3   OH234671   1.058   5.715   2.587 -0.4333  0.4442 -0.1780
 4371TIP3    H134672   1.006   5.761   2.652 -1.2108 -1.4901  0.6586
 4371TIP3    H234673   1.119   5.662   2.638 -0.6203 -0.6222 -1.0220
 4372TIP3   OH234674   4.891   0.077   1.379 -0.4126 -0.0155  0.3558
 4372TIP3    H134675   4.842   0.159   1.380 -2.2112 -1.0425  0.4112
 4372TIP3    H234676   4.882   0.044   1.290  0.9071  0.1662  0.1331
 4373TIP3   OH234677   3.012   2.137   7.747  0.0991 -0.4063 -0.1663
 4373TIP3    H134678   2.994   2.230   7.760  1.1042 -0.2822  0.4723
 4373TIP3    H234679   2.929   2.100   7.718 -0.9101  0.3147  1.6482
 4374TIP3   OH234680   2.110   4.290   1.507  0.4947 -0.4259 -0.8327
 4374TIP3    H134681   2.201   4.277   1.483  0.7213  0.3416 -0.4342
 4374TIP3    H234682   2.090   4.216   1.565  1.4662  0.4104  0.6559
 4375TIP3   OH234683   4.575   2.450   1.334 -0.0710  0.0654  0.2001
 4375TIP3    H134684   4.558   2.428   1.243 -0.1625  0.1247  0.2032
 4375TIP3    H234685   4.652   2.508   1.331 -0.2129  0.2499  0.1430
 4376TIP3   OH234686   2.518   6.588   0.352 -0.2693 -0.0365 -0.5151
 4376TIP3    H134687   2.608   6.572   0.324 -0.5377 -0.8889 -0.9491
 4376TIP3    H234688   2.525   6.604   0.446  0.2000 -1.6370 -0.2324
 4377TIP3   OH234689   1.848   3.832   2.047 -0.2066  0.0881 -0.1241
 4377TIP3    H134690   1.833   3.746   2.009 -1.2646  0.0050  0.4512
 4377TIP3    H234691   1.833   3.820   2.141  0.0253  0.8166  0.0144
 4378TIP3   OH234692   0.915   0.265   2.039 -0.5682 -0.0807  0.0883
 4378TIP3    H134693   0.832   0.246   2.084  0.4634 -2.5531  1.1616
 4378TIP3    H234694   0.977   0.283   2.110  0.7121 -2.3930 -0.3472
 4379TIP3   OH234695   2.108   4.815   7.618 -0.4611  0.4456  0.4342
 4379TIP3    H134696   2.141   4.872   7.549 -1.7885  1.7131  0.8109
 4379TIP3    H234697   2.057   4.748   7.572  0.7305 -0.2103  0.0257
 4380TIP3   OH234698   5.041   0.011   3.154  0.0970  0.4613  0.0187
 4380TIP3    H134699   5.016   0.095   3.117 -0.6807  0.4622  0.5245
 4380TIP3    H234700   5.135   0.019   3.172  0.0397  1.1965  0.0057
 4381TIP3   OH234701   0.280   6.234   2.005 -0.1170  0.0857 -0.3531
 4381TIP3    H134702   0.298   6.253   2.097 -0.3037  2.0905 -0.6925
 4381TIP3    H234703   0.362   6.252   1.960  0.0044 -0.9926 -0.5822
 4382TIP3   OH234704   3.396   0.430   8.605 -0.1084 -0.1401 -0.4291
 4382TIP3    H134705   3.324   0.493   8.598  1.6717  2.0501 -0.1183
 4382TIP3    H234706   3.398   0.407   8.698 -0.0344  0.2310 -0.3403
 4383TIP3   OH234707   1.615   5.560   1.397 -0.1486  0.1803  0.7058
 4383TIP3    H134708   1.671   5.507   1.340 -0.4588 -0.4747  0.9938
 4383TIP3    H234709   1.670   5.582   1.472  0.3964  1.4149 -0.0363
 4384TIP3   OH234710   5.065   5.491   2.347  0.2116 -0.0306 -0.5702
 4384TIP3    H134711   5.047   5.427   2.416  1.5725 -1.3405 -1.3574
 4384TIP3    H234712   5.161   5.500   2.348 -0.0081  3.2429  0.5566
 4385TIP3   OH234713   6.156   3.172   0.826  0.0446  0.4724 -0.8131
 4385TIP3    H134714   6.207   3.246   0.860 -0.5575  0.2336  0.6853
 4385TIP3    H234715   6.149   3.189   0.732  1.9195  1.0764 -0.8848
 4386TIP3   OH234716   3.554   6.771   7.886 -0.6303 -0.0532 -0.3231
 4386TIP3    H134717   3.631   6.812   7.926 -1.5626  2.1054 -0.6120
 4386TIP3    H234718   3.589   6.696   7.838  1.5385  1.6557 -1.6204
 4387TIP3   OH234719   2.327   2.991   2.309 -1.1319 -0.0371  0.6702
 4387TIP3    H134720   2.255   2.931   2.331 -0.6339 -0.3527  1.5052
 4387TIP3    H234721   2.348   2.971   2.218 -0.9254 -1.2075  0.9484
 4388TIP3   OH234722   6.706   1.895   3.348 -0.1582  0.5863  0.5633
 4388TIP3    H134723   6.786   1.846   3.329  1.0109  2.6582 -0.1872
 4388TIP3    H234724   6.657   1.895   3.266 -0.5587 -0.0028  0.7971
 4389TIP3   OH234725   3.214   3.996   8.585 -0.0580 -0.1471 -0.4156
 4389TIP3    H134726   3.275   3.922   8.576 -0.2401 -0.3097 -0.3281
 4389TIP3    H234727   3.137   3.958   8.627 -1.3696 -0.5987 -2.9674
 4390TIP3   OH234728   6.203   6.685   2.400  0.2363  0.0051 -0.0920
 4390TIP3    H134729   6.279   6.716   2.351  1.7716 -0.0706  2.0937
 4390TIP3    H234730   6.210   6.729   2.485 -1.5987 -0.8178  0.5344
 4391TIP3   OH234731   3.052   6.037   0.383 -0.3292 -0.3330  0.4073
 4391TIP3    H134732   3.056   6.030   0.288  1.4647 -1.3094  0.5037
 4391TIP3    H234733   3.004   6.118   0.400  0.0635  0.2897 -1.3252
 4392TIP3   OH234734   6.010   4.062   8.632  0.2382 -0.1612 -0.0431
 4392TIP3    H134735   6.097   4.024   8.615 -0.4808 -1.9254  0.0679
 4392TIP3    H234736   6.029   4.140   8.686  1.7679 -0.3029 -0.3137
 4393TIP3   OH234737   3.572   0.875   1.204 -0.5707  0.4421 -0.4845
 4393TIP3    H134738   3.546   0.813   1.273  0.5444  1.4074  0.8565
 4393TIP3    H234739   3.590   0.956   1.251  1.5281  0.7733 -1.7464
 4394TIP3   OH234740   1.953   3.800   0.187 -0.7378  0.4232 -0.4912
 4394TIP3    H134741   1.963   3.793   0.282  0.3399  0.7363 -0.5735
 4394TIP3    H234742   1.871   3.753   0.169 -0.3607 -0.6537  0.4523
 4395TIP3   OH234743   4.032   4.394   1.481  0.2963  0.8499 -0.1963
 4395TIP3    H134744   3.965   4.461   1.496  0.1898  0.5370  0.7667
 4395TIP3    H234745   3.994   4.337   1.414  0.1657  1.4375 -0.6314
 4396TIP3   OH234746   5.490   5.268   0.681 -0.5343  0.2611  0.2730
 4396TIP3    H134747   5.485   5.198   0.616 -0.5571  1.2854 -0.8901
 4396TIP3    H234748   5.583   5.293   0.682 -0.7156  0.9933 -0.2155
 4397TIP3   OH234749   2.367   5.031   2.252  0.0675  0.4583  0.4739
 4397TIP3    H134750   2.382   4.936   2.247  0.6674  0.5802 -0.1741
 4397TIP3    H234751   2.371   5.050   2.346 -3.0198 -0.5972  0.9331
 4398TIP3   OH234752   6.452   0.633   2.567  0.1164 -0.1696 -0.0224
 4398TIP3    H134753   6.393   0.706   2.550  1.6262  1.0799 -0.1070
 4398TIP3    H234754   6.414   0.588   2.643 -0.6592  0.8844  0.2292
 4399TIP3   OH234755   3.225   0.173   0.884 -0.3521 -0.3350  0.4965
 4399TIP3    H134756   3.257   0.237   0.947  0.8653 -1.9942  1.6505
 4399TIP3    H234757   3.164   0.119   0.933  0.2367 -1.3441  0.1541
 4400TIP3   OH234758   1.478   2.158   0.687 -0.5518 -0.1512  0.1753
 4400TIP3    H134759   1.513   2.142   0.775 -0.7228 -0.5867  0.1674
 4400TIP3    H234760   1.535   2.107   0.629 -0.1440  0.5192 -0.0190
 4401TIP3   OH234761   4.003   4.037   1.874  0.1646 -0.2522 -0.2625
 4401TIP3    H134762   4.087   4.081   1.862 -0.6371  1.2688 -0.5225
 4401TIP3    H234763   4.018   3.947   1.844  1.0828  0.5998 -2.5432
 4402TIP3   OH234764   2.664   4.680   8.666  0.1285  0.8534 -0.3500
 4402TIP3    H134765   2.644   4.750   8.604 -0.6251  0.8475 -0.1140
 4402TIP3    H234766   2.692   4.606   8.611  0.8904  1.3170 -0.6021
 4403TIP3   OH234767   2.920   2.396   7.756 -0.0238  0.0825  0.1617
 4403TIP3    H134768   2.896   2.413   7.665  0.3434  0.8765  0.2019
 4403TIP3    H234769   2.840   2.413   7.805 -0.3963 -0.9427 -0.0565
 4404TIP3   OH234770   1.550   1.018   8.629  0.3463 -0.0106 -0.4054
 4404TIP3    H134771   1.504   1.102   8.621  2.0561  0.9218 -1.0366
 4404TIP3    H234772   1.545   0.980   8.542  1.9941  0.8256 -0.9206
 4405TIP3   OH234773   5.452   2.667   2.478  0.1674  0.3523  0.0073
 4405TIP3    H134774   5.418   2.578   2.486 -1.0242  0.8642  1.0288
 4405TIP3    H234775   5.544   2.659   2.501  0.7489 -1.0093 -2.4592
 4406TIP3   OH234776   6.083   2.460   0.719  0.1876 -0.8449  0.0684
 4406TIP3    H134777   6.014   2.453   0.785  1.3196 -2.0647  1.1598
 4406TIP3    H234778   6.087   2.553   0.699  2.3651  0.2919  4.5716
 4407TIP3   OH234779   0.928   6.765   2.066  0.4797  0.3813  0.8076
 4407TIP3    H134780   0.940   6.860   2.073  0.1099  0.3454  2.3433
 4407TIP3    H234781   0.966   6.742   1.981 -1.5345  2.2328 -0.7086
 4408TIP3   OH234782   5.903   3.879   0.511 -0.3127 -0.9294  0.3109
 4408TIP3    H134783   5.836   3.946   0.528 -0.0804 -0.8708  1.0192
 4408TIP3    H234784   5.853   3.800   0.491 -0.6468 -0.0285 -2.9678
 4409TIP3   OH234785   0.532   1.958   0.126 -0.4545 -0.0525  0.2255
 4409TIP3    H134786   0.531   2.053   0.119 -2.3281 -0.0785 -0.4174
 4409TIP3    H234787   0.608   1.939   0.182 -0.7447  1.8859  1.3805
 4410TIP3   OH234788   1.170   3.751   8.714 -0.0297  0.1115  0.0227
 4410TIP3    H134789   1.200   3.664   8.689  0.4612  0.5393 -0.9204
 4410TIP3    H234790   1.170   3.801   8.632 -0.2358  1.0166  0.5608
 4411TIP3   OH234791   1.630   6.767   8.878  0.0184  0.0103 -0.4673
 4411TIP3    H134792   1.704   6.736   8.827  1.1543  0.8659  0.6107
 4411TIP3    H234793   1.631   6.862   8.866  1.8155  0.5791  2.9587
 4412TIP3   OH234794   3.477   2.420   0.920 -0.3683  0.3666 -0.5783
 4412TIP3    H134795   3.404   2.426   0.859 -0.8138 -1.3327 -0.2746
 4412TIP3    H234796   3.465   2.335   0.963  2.5022 -0.5981 -1.4436
 4413TIP3   OH234797   2.603   3.380   8.194  0.3110  0.0903 -1.1534
 4413TIP3    H134798   2.595   3.442   8.267 -0.5628  0.1934 -1.3287
 4413TIP3    H234799   2.558   3.301   8.225 -0.9211  0.4645 -1.9329
 4414TIP3   OH234800   0.232   5.780   8.176 -0.3230  0.3841 -0.4007
 4414TIP3    H134801   0.286   5.709   8.211 -0.5931  1.4993  2.5766
 4414TIP3    H234802   0.291   5.856   8.173 -1.0964  1.0588  0.6898
 4415TIP3   OH234803   5.478   6.518   0.574  0.2767  0.0174  0.0044
 4415TIP3    H134804   5.531   6.565   0.510 -0.7230 -0.8251 -1.4921
 4415TIP3    H234805   5.395   6.566   0.577 -0.2092 -0.7701 -0.4419
 4416TIP3   OH234806   2.279   0.861   0.252  0.0535 -0.2392  0.2856
 4416TIP3    H134807   2.246   0.949   0.273  2.9238  0.9039  0.3992
 4416TIP3    H234808   2.258   0.808   0.329  0.4655  1.0142  1.2991
 4417TIP3   OH234809   5.373   5.775   8.294 -0.3984  0.0520 -0.0795
 4417TIP3    H134810   5.306   5.837   8.266 -0.3244  0.9183  1.5259
 4417TIP3    H234811   5.346   5.692   8.254 -2.0658  0.5168 -0.0299
 4418TIP3   OH234812   1.608   5.418   1.057 -0.1867  0.5148 -0.6376
 4418TIP3    H134813   1.685   5.384   1.103 -0.5612 -0.2698 -0.5754
 4418TIP3    H234814   1.547   5.442   1.126  0.0410  1.2435 -0.6846
 4419TIP3   OH234815   3.727   4.997   1.023  0.4722  0.0191  0.2188
 4419TIP3    H134816   3.803   5.014   0.968 -1.0163  1.8158 -1.4162
 4419TIP3    H234817   3.728   5.067   1.088 -0.5429  0.9302 -0.7165
 4420TIP3   OH234818   1.750   0.226   1.479  0.5587 -0.4607 -0.0649
 4420TIP3    H134819   1.834   0.194   1.513  0.8925  1.0296  0.6082
 4420TIP3    H234820   1.687   0.159   1.503  1.6102 -1.8933 -1.0659
 4421TIP3   OH234821   3.720   6.770   0.633  0.2489  0.4873  0.1702
 4421TIP3    H134822   3.671   6.755   0.552 -0.5632  0.8449  0.5780
 4421TIP3    H234823   3.654   6.803   0.695  0.8195  0.0455  1.0314
 4422TIP3   OH234824   4.965   1.100   2.730  0.0528  0.0460  0.0057
 4422TIP3    H134825   4.871   1.092   2.716  0.6014 -2.3945 -3.8284
 4422TIP3    H234826   4.989   1.183   2.689 -0.2427 -0.3121 -0.9308
 4423TIP3   OH234827   0.067   6.003   7.480  0.3793 -0.2944  0.0141
 4423TIP3    H134828   0.037   6.077   7.428 -1.4591  0.3180  1.8187
 4423TIP3    H234829   0.045   5.926   7.427 -2.1016  0.2714  0.0980
 4424TIP3   OH234830   4.275   0.239   0.241 -0.0358 -0.5923 -0.2252
 4424TIP3    H134831   4.214   0.283   0.299 -0.9335 -0.1752 -1.4488
 4424TIP3    H234832   4.238   0.250   0.154  1.2584 -1.2209 -0.8888
 4425TIP3   OH234833   6.021   3.684   8.413  0.4180 -0.0744  0.1166
 4425TIP3    H134834   6.060   3.768   8.387 -1.1978  0.5681 -0.3255
 4425TIP3    H234835   5.979   3.702   8.497 -3.0902  0.6513 -1.6225
 4426TIP3   OH234836   3.542   5.467   8.796 -0.1370 -0.1689  0.7224
 4426TIP3    H134837   3.621   5.423   8.827 -0.0166  0.2444  1.0010
 4426TIP3    H234838   3.470   5.419   8.836 -0.1092 -1.5197 -0.7313
 4427TIP3   OH234839   2.633   2.447   0.166  0.1709  0.1472  0.8444
 4427TIP3    H134840   2.621   2.448   0.261  0.0089 -0.4145  0.8323
 4427TIP3    H234841   2.558   2.496   0.132 -1.0437 -1.5790  0.8899
 4428TIP3   OH234842   5.115   3.113   2.049  0.4250 -0.5190 -0.0116
 4428TIP3    H134843   5.075   3.199   2.040  1.2595  0.2098  2.4081
 4428TIP3    H234844   5.207   3.128   2.026  0.7521 -0.5156  1.2088
 4429TIP3   OH234845   5.343   2.073   1.697 -0.2049 -0.2510 -0.3213
 4429TIP3    H134846   5.352   1.990   1.744 -0.5862 -0.6690 -0.9657
 4429TIP3    H234847   5.274   2.056   1.632  0.4611  0.2357 -1.1719
 4430TIP3   OH234848   4.872   4.079   2.074 -0.2523  0.2976  0.4893
 4430TIP3    H134849   4.819   4.155   2.097 -0.9470 -0.0578  0.1084
 4430TIP3    H234850   4.960   4.101   2.102 -0.6244  0.8613  1.2519
 4431TIP3   OH234851   4.616   0.431   3.012 -0.5194  0.4269 -0.5423
 4431TIP3    H134852   4.612   0.525   2.994  1.8994  0.9035  0.9300
 4431TIP3    H234853   4.575   0.422   3.098  1.5630  0.6227  0.5356
 4432TIP3   OH234854   2.927   3.444   0.926 -0.0327  0.0908  0.1587
 4432TIP3    H134855   2.933   3.519   0.985  0.7186  0.9311 -0.9502
 4432TIP3    H234856   2.939   3.480   0.838 -0.7383 -1.1817 -0.5057
 4433TIP3   OH234857   2.143   2.926   3.158 -0.0908  0.5386  0.4020
 4433TIP3    H134858   2.132   2.875   3.078  0.2114  0.8858  0.1394
 4433TIP3    H234859   2.076   2.892   3.217  1.0021 -1.1835  0.7388
 4434TIP3   OH234860   5.912   1.104   2.465  0.4108 -0.6911  0.6904
 4434TIP3    H134861   5.851   1.127   2.394 -0.3147  0.5078  1.6629
 4434TIP3    H234862   5.997   1.137   2.435  0.9065 -3.2780 -1.1394
 4435TIP3   OH234863   3.897   3.178   8.198 -0.7525  0.4999 -0.0557
 4435TIP3    H134864   3.924   3.254   8.146  0.9449 -0.4685 -0.7026
 4435TIP3    H234865   3.902   3.208   8.289  2.0824  0.6287 -0.1500
 4436TIP3   OH234866   1.876   3.300   1.818  0.7046 -0.1991  0.5387
 4436TIP3    H134867   1.873   3.265   1.907  1.0436  0.2414  0.7277
 4436TIP3    H234868   1.840   3.388   1.825 -0.5015 -0.6370 -0.0038
 4437TIP3   OH234869   0.717   0.986   1.913 -0.5226  0.3055  0.3434
 4437TIP3    H134870   0.769   0.947   1.842 -0.7265 -0.4179  0.5736
 4437TIP3    H234871   0.745   0.937   1.991  0.3514  1.6904  0.9234
 4438TIP3   OH234872   0.854   4.458   2.206  0.0537 -0.4304 -0.1987
 4438TIP3    H134873   0.801   4.396   2.155 -0.5257 -0.0062 -0.1285
 4438TIP3    H234874   0.891   4.517   2.140 -1.0586  0.3923 -0.1122
 4439TIP3   OH234875   4.533   1.952   7.881 -0.1587  0.2319 -0.0884
 4439TIP3    H134876   4.517   2.046   7.875  1.0809  0.4918  0.4646
 4439TIP3    H234877   4.592   1.942   7.955  0.1757 -0.9256 -0.4918
 4440TIP3   OH234878   5.093   1.464   8.723 -0.4115 -0.5004 -0.8727
 4440TIP3    H134879   5.003   1.447   8.752 -0.4989  2.2185  0.7760
 4440TIP3    H234880   5.148   1.426   8.791 -0.4973  1.4481  0.3671
 4441TIP3   OH234881   0.688   5.399   8.421  0.1114  0.0854 -0.6286
 4441TIP3    H134882   0.696   5.304   8.409  0.0440 -0.0842  0.5665
 4441TIP3    H234883   0.753   5.436   8.362  0.6698 -0.7425 -0.5543
 4442TIP3   OH234884   3.972   3.030   1.889 -0.1042  0.4669 -0.4486
 4442TIP3    H134885   3.952   3.000   1.800  1.3740  0.0437 -0.6708
 4442TIP3    H234886   3.983   2.949   1.939  1.7091  0.6101 -0.5328
 4443TIP3   OH234887   5.108   2.281   3.011 -0.1415 -0.4753 -0.2978
 4443TIP3    H134888   5.014   2.295   2.995 -0.4627 -2.0516  0.1095
 4443TIP3    H234889   5.133   2.354   3.068 -1.5443 -1.0289  1.0727
 4444TIP3   OH234890   4.939   5.097   1.775  0.1732 -0.3950  0.4629
 4444TIP3    H134891   4.887   5.069   1.850 -0.0291 -0.8431  0.1579
 4444TIP3    H234892   4.906   5.045   1.702  0.7184 -0.3336  0.1680
 4445TIP3   OH234893   0.814   2.902   2.977  0.0776  0.5507  1.4568
 4445TIP3    H134894   0.783   2.855   3.054  1.4811 -0.6556  1.3332
 4445TIP3    H234895   0.839   2.988   3.011 -0.3578  0.4239  2.1314
 4446TIP3   OH234896   2.763   6.522   8.467  0.4303  0.5370 -0.4056
 4446TIP3    H134897   2.839   6.579   8.459  0.9574 -0.0466  0.2722
 4446TIP3    H234898   2.699   6.574   8.516  1.5624 -0.0283  1.7874
 4447TIP3   OH234899   3.168   3.534   8.479 -0.6590  0.5277  0.8612
 4447TIP3    H134900   3.086   3.525   8.527 -1.2374  1.9653  0.1723
 4447TIP3    H234901   3.160   3.617   8.432  0.9944  0.4577  0.4032
 4448TIP3   OH234902   4.318   1.151   0.176 -0.0020  0.3119 -0.1806
 4448TIP3    H134903   4.249   1.164   0.242  0.1660 -0.6588  0.1975
 4448TIP3    H234904   4.324   1.236   0.132  0.2864  1.1743  1.4441
 4449TIP3   OH234905   3.270   2.947   8.710 -0.6296  0.3520  0.5233
 4449TIP3    H134906   3.313   2.921   8.792 -2.4221 -0.1877  1.3516
 4449TIP3    H234907   3.276   3.043   8.710 -0.1371  0.3266  1.0258
 4450TIP3   OH234908   1.263   2.739   3.226  0.5522  0.4840  0.0542
 4450TIP3    H134909   1.294   2.655   3.258  2.1115  0.5144 -1.2261
 4450TIP3    H234910   1.323   2.761   3.155  0.0244  2.5642  0.1895
 4451TIP3   OH234911   3.918   2.186   8.366  0.6377 -0.3092  0.1410
 4451TIP3    H134912   3.978   2.230   8.307 -0.9755  1.3463 -0.3576
 4451TIP3    H234913   3.884   2.112   8.315  0.5248  0.1137 -0.4053
 4452TIP3   OH234914   3.867   6.622   3.472 -0.0321  0.0410  0.0711
 4452TIP3    H134915   3.946   6.572   3.491 -1.3460 -2.1418  0.1019
 4452TIP3    H234916   3.838   6.656   3.557 -0.0766 -0.6365  0.3291
 4453TIP3   OH234917   4.678   2.674   2.012 -0.2286  0.2542  0.7573
 4453TIP3    H134918   4.761   2.641   1.980  0.4361  1.2418  1.4211
 4453TIP3    H234919   4.614   2.609   1.984  0.2056  1.1751 -2.8524
 4454TIP3   OH234920   5.879   6.382   8.188 -0.8784  0.4858  0.1164
 4454TIP3    H134921   5.797   6.337   8.207 -0.9364 -0.7939 -2.6630
 4454TIP3    H234922   5.856   6.446   8.121  0.5283 -0.7324 -1.6238
 4455TIP3   OH234923   3.858   4.990   8.204  0.0220  0.3961 -0.1421
 4455TIP3    H134924   3.792   5.056   8.184 -0.5260  0.3122  1.2628
 4455TIP3    H234925   3.930   5.008   8.144 -0.6830  1.4138 -0.6947
 4456TIP3   OH234926   4.650   3.684   2.235 -0.4510 -0.1851  0.5112
 4456TIP3    H134927   4.737   3.716   2.209 -0.1804 -1.7824 -0.7442
 4456TIP3    H234928   4.596   3.694   2.156 -1.4872  0.9418  1.3302
 4457TIP3   OH234929   3.153   4.918   8.615 -0.0137 -0.3863 -0.5608
 4457TIP3    H134930   3.066   4.904   8.578 -0.0206 -0.5313 -0.4891
 4457TIP3    H234931   3.141   4.990   8.677 -0.5263 -1.7121  0.9684
 4458TIP3   OH234932   0.805   6.053   8.047  0.0244 -0.6146 -0.2202
 4458TIP3    H134933   0.751   6.112   7.995  0.7084 -1.6509 -2.2095
 4458TIP3    H234934   0.868   6.110   8.090 -0.4231  0.2639 -0.7062
 4459TIP3   OH234935   5.487   3.070   0.563 -0.3771 -0.6056  0.5015
 4459TIP3    H134936   5.407   3.022   0.542  1.5518 -3.7877 -0.2129
 4459TIP3    H234937   5.547   3.049   0.492  1.1274  1.7117  0.9940
 4460TIP3   OH234938   4.756   4.104   1.131 -0.5918  0.4402  0.4596
 4460TIP3    H134939   4.808   4.120   1.210  0.8974 -0.3145 -0.3278
 4460TIP3    H234940   4.668   4.135   1.153 -0.4240 -0.4951  2.6870
 4461TIP3   OH234941   6.393   6.695   7.890  0.1522 -0.1153  0.0644
 4461TIP3    H134942   6.311   6.657   7.921 -0.2569  1.3207  0.8889
 4461TIP3    H234943   6.456   6.676   7.960 -0.4072  1.8474  1.1926
 4462TIP3   OH234944   2.135   2.085   0.694 -0.4985  0.1050 -0.0828
 4462TIP3    H134945   2.146   2.050   0.782 -0.9519  1.3992  0.5175
 4462TIP3    H234946   2.191   2.031   0.638  0.3366 -0.2855  1.1121
 4463TIP3   OH234947   2.086   3.999   0.053 -0.1899 -0.1736  0.1114
 4463TIP3    H134948   2.068   3.974  -0.038  0.2519  1.0969 -0.3540
 4463TIP3    H234949   2.015   3.958   0.103 -0.5294 -0.7716 -0.8232
 4464TIP3   OH234950   1.459   3.788   3.253 -0.3842  0.0210  0.9572
 4464TIP3    H134951   1.425   3.803   3.165  1.5890 -0.8559 -0.0238
 4464TIP3    H234952   1.445   3.695   3.269  3.1272 -0.8877 -0.3345
 4465TIP3   OH234953   2.926   6.667   0.785  0.1530  0.0536 -0.1576
 4465TIP3    H134954   2.880   6.643   0.705 -1.6237  1.3747  0.3997
 4465TIP3    H234955   2.951   6.758   0.773 -0.7828  0.4970  1.0361
 4466TIP3   OH234956   1.321   2.107   8.637 -0.4135  0.7247 -0.0169
 4466TIP3    H134957   1.283   2.142   8.718 -0.3954 -0.3694  0.4849
 4466TIP3    H234958   1.407   2.148   8.632 -0.5623  1.0931  0.3145
 4467TIP3   OH234959   2.290   0.572   7.387 -0.7530 -0.2271  0.0649
 4467TIP3    H134960   2.219   0.508   7.379 -1.5422  0.6076  0.2884
 4467TIP3    H234961   2.345   0.556   7.311 -0.7712 -1.3715  0.2727
 4468TIP3   OH234962   2.784   2.438   0.792 -0.2673 -0.3508  0.3356
 4468TIP3    H134963   2.733   2.474   0.718 -1.9347 -1.1881  1.0337
 4468TIP3    H234964   2.736   2.466   0.870  0.7264 -0.6144  1.0598
 4469TIP3   OH234965   1.366   2.781   1.018 -0.4111 -0.1041 -0.2562
 4469TIP3    H134966   1.408   2.698   1.043 -1.1809 -0.3983  0.1228
 4469TIP3    H234967   1.284   2.781   1.067  0.7077  2.1168  1.8576
 4470TIP3   OH234968   3.282   3.734   2.753 -0.0755  0.2884 -0.1115
 4470TIP3    H134969   3.321   3.782   2.826 -0.6324 -0.0449  0.4129
 4470TIP3    H234970   3.212   3.790   2.721  1.0523  1.0884 -1.3382
 4471TIP3   OH234971   5.943   5.713   0.432 -0.4648 -0.1603  0.2342
 4471TIP3    H134972   5.996   5.730   0.510 -1.7356  0.9859  0.8829
 4471TIP3    H234973   5.874   5.778   0.435 -1.0689 -0.6739 -1.3893
 4472TIP3   OH234974   1.297   2.897   8.908  0.1686  0.0189  0.2056
 4472TIP3    H134975   1.251   2.945   8.977 -3.9969  0.6557 -2.6416
 4472TIP3    H234976   1.246   2.817   8.896  2.0077 -1.0800 -0.8179
 4473TIP3   OH234977   4.663   4.133   8.659 -0.2806 -0.2348  0.0115
 4473TIP3    H134978   4.632   4.171   8.741 -0.1915  0.7345 -0.3943
 4473TIP3    H234979   4.626   4.189   8.591  2.3181  0.9967 -0.5060
 4474TIP3   OH234980   4.980   1.137   2.233 -0.2842 -0.2183 -0.4371
 4474TIP3    H134981   4.897   1.177   2.209 -0.8957 -1.1673  0.0559
 4474TIP3    H234982   4.959   1.045   2.251  1.3701 -1.3849 -3.4913
 4475TIP3   OH234983   2.472   5.351   0.275 -0.2753  0.2757 -0.1060
 4475TIP3    H134984   2.501   5.275   0.224 -1.1055  0.6026 -1.0848
 4475TIP3    H234985   2.498   5.427   0.223  1.0692  0.7221  1.1316
 4476TIP3   OH234986   1.778   2.274   7.685 -0.5598  0.1294  0.0083
 4476TIP3    H134987   1.771   2.366   7.711 -0.3318  0.1607 -0.0408
 4476TIP3    H234988   1.694   2.255   7.642  0.6902  1.3285 -3.2782
 4477TIP3   OH234989   1.601   5.223   0.250  0.0299 -0.1795  0.2674
 4477TIP3    H134990   1.665   5.286   0.283 -1.3226  0.7745  1.2037
 4477TIP3    H234991   1.637   5.194   0.166  1.0439  1.3085  0.1411
 4478TIP3   OH234992   3.480   4.648   7.655 -0.1103 -1.0560 -0.4060
 4478TIP3    H134993   3.431   4.602   7.586  0.5406 -0.2462 -1.4502
 4478TIP3    H234994   3.556   4.683   7.609 -1.1081  1.9976  0.0638
 4479TIP3   OH234995   3.991   6.113   3.377 -0.5040  0.3299  0.0975
 4479TIP3    H134996   3.979   6.194   3.328  1.0647  0.3165 -0.3672
 4479TIP3    H234997   3.978   6.044   3.312  1.3481  0.3073 -0.3010
 4480TIP3   OH234998   4.282   2.474   0.568  0.1410 -0.1459 -0.2378
 4480TIP3    H134999   4.192   2.495   0.591 -0.2902 -0.3810 -1.6206
 4480TIP3    H235000   4.281   2.380   0.550  0.8630 -0.3247  0.5870
 4481TIP3   OH235001   0.547   6.345   1.283  0.1161 -0.0581 -0.2913
 4481TIP3    H135002   0.535   6.353   1.377 -0.5630 -1.3562 -0.2450
 4481TIP3    H235003   0.548   6.251   1.267 -0.6130  0.1446 -1.6875
 4482TIP3   OH235004   2.110   1.902   3.301 -0.3620  0.2494 -0.2143
 4482TIP3    H135005   2.147   1.941   3.379 -1.2732  1.6318 -0.4306
 4482TIP3    H235006   2.184   1.891   3.241  0.1226  0.3933  0.3558
 4483TIP3   OH235007   1.898   6.594   3.317  0.0998 -0.5232  0.1889
 4483TIP3    H135008   1.850   6.671   3.347 -0.0159  0.2192 -1.7433
 4483TIP3    H235009   1.978   6.630   3.277  0.5365 -1.4826  0.1709
 4484TIP3   OH235010   5.841   1.413   8.303 -0.1000  0.4507  0.1605
 4484TIP3    H135011   5.825   1.349   8.233 -0.1777 -0.8407  1.3243
 4484TIP3    H235012   5.936   1.423   8.305 -0.1389  1.1366 -0.6598
 4485TIP3   OH235013   1.737   4.803   1.991 -0.3192 -0.2852  0.6213
 4485TIP3    H135014   1.694   4.864   2.051 -0.4838 -0.5311  0.7564
 4485TIP3    H235015   1.823   4.841   1.975 -0.0717 -0.4949  1.4421
 4486TIP3   OH235016   5.691   3.713   2.519 -0.0522  0.0815  0.3177
 4486TIP3    H135017   5.651   3.634   2.482  0.4111  1.0204 -2.3753
 4486TIP3    H235018   5.623   3.749   2.576 -0.5306 -1.8305  1.0532
 4487TIP3   OH235019   5.755   1.993   2.402 -0.4652 -0.0448 -0.4034
 4487TIP3    H135020   5.794   1.941   2.472 -0.1753  1.9616  1.0014
 4487TIP3    H235021   5.662   1.972   2.405 -0.2626 -0.9608 -0.3157
 4488TIP3   OH235022   4.468   3.736   2.026  0.8350 -0.1713  0.2398
 4488TIP3    H135023   4.407   3.805   2.001 -1.5641 -2.1025  0.4223
 4488TIP3    H235024   4.503   3.703   1.943  1.7169  0.9510  0.1371
 4489TIP3   OH235025   4.443   1.825   2.711 -0.0185  0.5681  0.1174
 4489TIP3    H135026   4.462   1.916   2.693  1.5648  0.1273 -0.5832
 4489TIP3    H235027   4.419   1.823   2.804 -0.2656  1.6952  0.0870
 4490TIP3   OH235028   5.537   1.187   8.249 -0.1270  0.0549 -0.5645
 4490TIP3    H135029   5.595   1.200   8.174 -1.5561  2.5003 -1.3566
 4490TIP3    H235030   5.450   1.173   8.210 -0.8510  1.1089  0.5818
 4491TIP3   OH235031   0.166   2.466   0.207  0.2193  0.2925  0.3079
 4491TIP3    H135032   0.112   2.474   0.285 -0.1192  0.8379  0.0178
 4491TIP3    H235033   0.128   2.392   0.159  0.6533 -0.2812  0.8307
 4492TIP3   OH235034   1.242   0.799   1.037 -0.0096 -0.1729 -0.3346
 4492TIP3    H135035   1.185   0.723   1.024 -1.3832  0.6712  0.5002
 4492TIP3    H235036   1.213   0.837   1.120  0.5981  1.3014 -0.7606
 4493TIP3   OH235037   3.686   3.171   0.152  0.7981  0.2299  0.0859
 4493TIP3    H135038   3.646   3.179   0.239  0.8649 -0.3626  0.1736
 4493TIP3    H235039   3.630   3.109   0.106  1.2640 -0.1240  0.0002
 4494TIP3   OH235040   4.027   1.846   1.832  0.5082  0.0528 -0.2439
 4494TIP3    H135041   4.079   1.905   1.886 -0.0043  0.7139 -0.4636
 4494TIP3    H235042   4.089   1.781   1.801  0.8629 -0.1660  0.9007
 4495TIP3   OH235043   2.741   1.024   0.457  0.2469  0.0375 -0.5123
 4495TIP3    H135044   2.661   1.009   0.407  0.2646 -0.9344 -0.2626
 4495TIP3    H235045   2.736   0.962   0.529  1.5818 -0.5424 -0.9066
 4496TIP3   OH235046   5.854   2.736   7.692  0.2956  0.1753  0.3784
 4496TIP3    H135047   5.840   2.654   7.645 -2.0413  1.1850 -0.8407
 4496TIP3    H235048   5.944   2.761   7.671 -0.0594 -0.3684 -2.0660
 4497TIP3   OH235049   1.564   3.588   2.207  0.3583  0.7626  0.1334
 4497TIP3    H135050   1.504   3.639   2.153  1.0932  0.1569 -1.3002
 4497TIP3    H235051   1.640   3.645   2.220  1.5320 -0.1453 -2.1417
 4498TIP3   OH235052   2.273   6.759   2.661 -0.3422 -0.4142 -0.1372
 4498TIP3    H135053   2.206   6.789   2.600  0.2610 -1.7837 -1.5299
 4498TIP3    H235054   2.267   6.664   2.659  0.8248 -0.5275  0.6522
 4499TIP3   OH235055   4.421   4.198   8.069 -0.1294 -0.0767  0.0451
 4499TIP3    H135056   4.438   4.103   8.068  1.5170  0.1727  0.8606
 4499TIP3    H235057   4.475   4.233   7.999 -0.0969  0.3531  0.2810
 4500TIP3   OH235058   6.753   3.529   8.302  0.2728 -0.1507 -0.0036
 4500TIP3    H135059   6.671   3.490   8.271 -0.8567  0.2589  2.3233
 4500TIP3    H235060   6.821   3.482   8.253 -1.2968 -0.9859 -1.4782
 4501TIP3   OH235061   5.041   1.086   1.266  0.3479 -0.1857  0.1006
 4501TIP3    H135062   5.113   1.139   1.299  0.8370 -0.8582  0.1318
 4501TIP3    H235063   5.081   1.028   1.201  0.0638 -1.3565  0.9332
 4502TIP3   OH235064   1.643   6.505   3.225  0.5314 -0.1829  0.1898
 4502TIP3    H135065   1.723   6.511   3.276  0.7377  0.9048 -0.2556
 4502TIP3    H235066   1.591   6.439   3.271  0.8664  0.4992  1.5946
 4503TIP3   OH235067   2.273   3.590   3.059  0.1157 -0.1215 -0.4066
 4503TIP3    H135068   2.364   3.611   3.040  0.5842  0.1432  1.7895
 4503TIP3    H235069   2.257   3.630   3.145 -1.5947 -1.5025 -0.0221
 4504TIP3   OH235070   5.165   2.887   8.506 -0.2592 -0.0755 -0.1083
 4504TIP3    H135071   5.157   2.881   8.601 -0.8356 -0.6682 -0.1875
 4504TIP3    H235072   5.143   2.978   8.486  0.9315  0.3579  0.4092
 4505TIP3   OH235073   5.415   0.853   7.979 -0.2545 -0.1314 -0.2584
 4505TIP3    H135074   5.343   0.905   7.945  0.5061  1.0991 -0.0817
 4505TIP3    H235075   5.494   0.902   7.953  0.5105 -1.3726 -0.3504
 4506TIP3   OH235076   0.266   2.018   1.895 -0.6037 -0.5310 -0.2591
 4506TIP3    H135077   0.262   2.101   1.848 -1.7627 -0.1475  0.4874
 4506TIP3    H235078   0.323   2.036   1.971 -0.8500 -0.4152 -0.1006
 4507TIP3   OH235079   4.897   0.871   1.394 -0.0632  0.1286  0.0428
 4507TIP3    H135080   4.831   0.813   1.356 -0.6181 -0.0169  1.1872
 4507TIP3    H235081   4.936   0.916   1.319 -1.3761  0.1307 -0.6657
 4508TIP3   OH235082   5.348   6.208   1.981  0.3446  0.1342 -0.0363
 4508TIP3    H135083   5.342   6.298   1.951 -2.7575 -0.8956 -3.1679
 4508TIP3    H235084   5.441   6.187   1.979  1.1210  3.1296  0.6346
 4509TIP3   OH235085   1.278   4.541   3.069  0.1865 -0.3719  0.0456
 4509TIP3    H135086   1.343   4.587   3.122  1.1718  0.2062 -1.6143
 4509TIP3    H235087   1.318   4.532   2.983 -2.2459  0.8026 -1.3224
 4510TIP3   OH235088   2.278   0.394   8.243  0.3078 -0.3323 -0.5493
 4510TIP3    H135089   2.223   0.451   8.296 -0.7531 -1.5447 -0.2769
 4510TIP3    H235090   2.364   0.436   8.243  0.3125 -0.1527  1.9674
 4511TIP3   OH235091   4.738   2.841   7.788 -0.3575  0.0506  0.6905
 4511TIP3    H135092   4.690   2.917   7.754 -0.6833 -0.2420  0.4875
 4511TIP3    H235093   4.808   2.827   7.724  0.3468  0.8102  1.2687
 4512TIP3   OH235094   0.567   2.713   0.818  0.4309  0.0876  0.1370
 4512TIP3    H135095   0.576   2.744   0.908 -0.6064 -1.1128  0.6899
 4512TIP3    H235096   0.527   2.787   0.771 -1.7236 -0.2197  1.3530
 4513TIP3   OH235097   6.523   1.391   1.676  0.6843  0.0301  0.2175
 4513TIP3    H135098   6.525   1.486   1.687  0.1848  0.1957 -0.9998
 4513TIP3    H235099   6.611   1.362   1.699  0.7710  0.7560  0.8324
 4514TIP3   OH235100   0.378   6.274   3.016  0.0312 -0.0297  0.0765
 4514TIP3    H135101   0.439   6.273   3.089  1.8887 -0.0784 -1.4116
 4514TIP3    H235102   0.340   6.187   3.014 -1.7764  0.6195  2.3040
 4515TIP3   OH235103   4.268   4.053   8.705 -0.1083  0.6054 -0.0828
 4515TIP3    H135104   4.189   4.015   8.744 -0.5331  2.0220  0.4922
 4515TIP3    H235105   4.304   4.108   8.774  1.3212  0.0840 -0.3890
 4516TIP3   OH235106   4.424   3.831   1.289  0.3647 -0.1898  0.9327
 4516TIP3    H135107   4.412   3.769   1.218  1.6370  0.8956 -0.2938
 4516TIP3    H235108   4.343   3.881   1.291  0.7394  0.5607 -0.6176
 4517TIP3   OH235109   6.626   4.449   1.899  0.0516  0.1088  0.1598
 4517TIP3    H135110   6.636   4.381   1.965 -2.3928 -1.8252 -1.2857
 4517TIP3    H235111   6.566   4.513   1.939 -0.9127 -0.7311  0.1014
 4518TIP3   OH235112   5.625   3.377   2.452  0.2851  0.6462 -0.4782
 4518TIP3    H135113   5.714   3.402   2.475 -0.3751  1.9276  0.8605
 4518TIP3    H235114   5.598   3.318   2.522 -0.6089  1.9300  0.2967
 4519TIP3   OH235115   2.997   1.797   1.895 -0.8411 -0.3520  0.5211
 4519TIP3    H135116   3.023   1.848   1.972 -0.8501  0.2262  0.1517
 4519TIP3    H235117   3.078   1.760   1.861 -0.6055  0.6753 -0.0849
 4520TIP3   OH235118   5.646   2.062   1.459 -0.2549  0.4465 -0.0634
 4520TIP3    H135119   5.594   2.136   1.492  1.0568  1.1897  0.4040
 4520TIP3    H235120   5.713   2.047   1.526  0.2080 -0.4150 -0.6930
 4521TIP3   OH235121   4.150   2.532   1.903  0.2208  0.0719 -0.1922
 4521TIP3    H135122   4.187   2.476   1.971  1.9041 -0.5346 -1.5473
 4521TIP3    H235123   4.185   2.619   1.923  0.4406 -0.0403 -0.0782
 4522TIP3   OH235124   1.605   4.947   8.629 -0.0410 -0.2385 -0.9489
 4522TIP3    H135125   1.645   4.990   8.553  0.6512  0.4185 -0.2326
 4522TIP3    H235126   1.620   4.854   8.615  2.6096  0.0027 -0.2892
 4523TIP3   OH235127   4.689   4.566   0.267  0.1742 -0.2756  0.1827
 4523TIP3    H135128   4.763   4.616   0.301 -0.4842  0.8880 -0.0447
 4523TIP3    H235129   4.692   4.580   0.172 -0.4626 -0.0264  0.1929
 4524TIP3   OH235130   2.267   3.955   8.388  0.0916 -0.2576 -0.0078
 4524TIP3    H135131   2.206   4.025   8.368 -0.4014 -0.3042  1.2822
 4524TIP3    H235132   2.220   3.875   8.364 -0.0858 -0.2552  0.3326
 4525TIP3   OH235133   1.530   3.567   8.777  0.2458  0.1587  0.2070
 4525TIP3    H135134   1.486   3.485   8.803  1.0637 -0.0265  1.0443
 4525TIP3    H235135   1.487   3.591   8.694 -2.1775  0.5543  1.4800
 4526TIP3   OH235136   5.529   5.837   1.220  0.1122  0.0132 -0.0197
 4526TIP3    H135137   5.612   5.825   1.267  0.0268 -0.3572  0.0343
 4526TIP3    H235138   5.515   5.932   1.222 -0.3397 -0.0571  1.4819
 4527TIP3   OH235139   2.209   1.734   2.695 -0.4817 -0.3422 -0.5098
 4527TIP3    H135140   2.294   1.780   2.698 -1.3994  1.7047 -2.5734
 4527TIP3    H235141   2.172   1.747   2.782  0.1913  1.1100 -0.4043
 4528TIP3   OH235142   5.055   0.276   3.050  0.2970 -0.0913 -0.2460
 4528TIP3    H135143   5.149   0.291   3.044 -0.0689  1.9836 -1.7398
 4528TIP3    H235144   5.017   0.363   3.055 -1.6000 -0.8630 -0.4642
 4529TIP3   OH235145   4.939   5.656   8.151 -0.3995 -0.3764 -0.2331
 4529TIP3    H135146   4.978   5.738   8.182 -0.7744 -0.7367  1.2644
 4529TIP3    H235147   5.013   5.594   8.149 -0.7676 -1.0626  2.6156
 4530TIP3   OH235148   3.090   1.887   8.108 -0.8258  0.3450  0.3694
 4530TIP3    H135149   3.065   1.936   8.186  1.0296 -1.0928  1.9730
 4530TIP3    H235150   3.009   1.880   8.057 -2.4032  0.3161  2.7299
 4531TIP3   OH235151   0.055   2.467   0.966 -0.2065  0.3271  0.2319
 4531TIP3    H135152  -0.012   2.525   1.003  0.9374  1.5376  0.5094
 4531TIP3    H235153   0.131   2.524   0.952  1.2626 -1.2771  1.2757
 4532TIP3   OH235154   4.655   0.943   8.174  0.8334 -0.0199  0.2835
 4532TIP3    H135155   4.747   0.919   8.162  1.0837  1.1905 -0.3609
 4532TIP3    H235156   4.628   0.976   8.088 -0.6199 -1.6451  0.0637
 4533TIP3   OH235157   1.844   0.783   1.121  0.4323  0.4970 -0.3511
 4533TIP3    H135158   1.815   0.697   1.149 -0.0573  0.8134  0.1197
 4533TIP3    H235159   1.931   0.793   1.161  0.9520 -0.1983 -1.2667
 4534TIP3   OH235160   1.520   0.628   7.986 -0.5257  0.1850 -0.1129
 4534TIP3    H135161   1.430   0.615   8.014 -0.0599 -0.4532  1.1694
 4534TIP3    H235162   1.523   0.719   7.956 -1.7287  0.0263 -0.7868
 4535TIP3   OH235163   2.810   1.898   8.580 -0.5615 -0.4292 -0.1382
 4535TIP3    H135164   2.734   1.948   8.609  1.0740  2.0083  0.2978
 4535TIP3    H235165   2.882   1.933   8.633  1.0826 -1.7625 -1.4001
 4536TIP3   OH235166   0.650   3.825   0.063 -0.5335 -0.1421 -0.5853
 4536TIP3    H135167   0.595   3.768   0.010 -0.6317  0.8650 -1.6136
 4536TIP3    H235168   0.740   3.805   0.035 -0.3578 -1.5494  0.8565
 4537TIP3   OH235169   2.235   5.717   1.364  0.0428  0.0455 -0.1655
 4537TIP3    H135170   2.143   5.713   1.339  0.0749 -1.3075 -0.1417
 4537TIP3    H235171   2.281   5.739   1.283 -0.1413 -1.2842 -0.6618
 4538TIP3   OH235172   2.649   5.280   0.853 -0.4302  0.6917  0.2673
 4538TIP3    H135173   2.716   5.225   0.892 -1.3708  0.6735  1.9797
 4538TIP3    H235174   2.569   5.257   0.900 -1.3431  1.7339 -0.7178
 4539TIP3   OH235175   6.454   2.495   2.526  0.1127 -0.1292  0.3526
 4539TIP3    H135176   6.452   2.587   2.552  0.7612 -0.5565  2.0548
 4539TIP3    H235177   6.438   2.446   2.608  0.1277 -1.5370 -0.4447
 4540TIP3   OH235178   6.207   5.888   8.437 -0.5135  0.5510  0.2169
 4540TIP3    H135179   6.151   5.960   8.408 -0.3286  0.7284  0.3087
 4540TIP3    H235180   6.158   5.809   8.412 -1.2469  0.7009  1.1283
 4541TIP3   OH235181   4.550   0.216   0.133  0.1944  1.0722  0.1501
 4541TIP3    H135182   4.460   0.241   0.154  0.7970  3.8374 -0.1435
 4541TIP3    H235183   4.602   0.293   0.157  2.7843 -1.0947  2.0547
 4542TIP3   OH235184   4.134   2.273   8.634 -0.2762 -0.0115  0.3752
 4542TIP3    H135185   4.190   2.348   8.615 -0.9602  0.1740 -0.9817
 4542TIP3    H235186   4.045   2.305   8.619 -0.6364 -0.8523  0.6466
 4543TIP3   OH235187   0.045   5.917   8.632 -0.3507 -0.1451 -0.1531
 4543TIP3    H135188   0.077   5.967   8.707 -2.6954 -1.4472  1.8309
 4543TIP3    H235189   0.125   5.880   8.593  0.9740  0.9285  1.3912
 4544TIP3   OH235190   0.508   0.461   0.980 -0.0798  0.0661 -0.1736
 4544TIP3    H135191   0.539   0.551   0.981 -0.5728  0.2390 -0.1335
 4544TIP3    H235192   0.499   0.440   0.887  0.4139 -0.0775 -0.1912
 4545TIP3   OH235193   0.383   5.770   2.353 -0.4374 -0.6102 -0.4873
 4545TIP3    H135194   0.330   5.772   2.433  0.1015 -0.3398 -0.1235
 4545TIP3    H235195   0.321   5.756   2.283 -0.7929 -2.1530  0.0926
 4546TIP3   OH235196   2.226   1.179   1.241 -0.2312 -0.0437  0.3838
 4546TIP3    H135197   2.301   1.205   1.295  0.1856  0.8686 -0.6021
 4546TIP3    H235198   2.149   1.205   1.292  0.1535  0.8153  0.5384
 4547TIP3   OH235199   6.394   0.079   2.214 -0.2972 -0.0485 -0.3366
 4547TIP3    H135200   6.322   0.106   2.157  0.5776  2.2738 -0.4226
 4547TIP3    H235201   6.467   0.061   2.155  0.1953  0.9761 -0.0517
 4548TIP3   OH235202   6.628   2.941   0.834 -0.4111 -0.9141  0.3710
 4548TIP3    H135203   6.565   3.011   0.820 -0.2482 -0.8490 -0.0748
 4548TIP3    H235204   6.661   2.954   0.923 -1.4781 -1.3208  0.8402
 4549TIP3   OH235205   6.596   4.125   0.592 -0.1020 -0.4356 -0.4035
 4549TIP3    H135206   6.578   4.042   0.549 -0.7996 -0.3849 -0.2085
 4549TIP3    H235207   6.647   4.175   0.528 -1.7530 -0.0707 -1.4637
 4550TIP3   OH235208   2.055   3.805   1.686 -0.1897 -0.0457 -0.2444
 4550TIP3    H135209   1.986   3.870   1.701  1.0986  1.6383 -1.3743
 4550TIP3    H235210   2.016   3.723   1.717 -1.2418  1.4739  2.9818
 4551TIP3   OH235211   6.638   5.393   8.627  0.4471 -0.2313 -0.0890
 4551TIP3    H135212   6.672   5.483   8.630 -0.6723  0.2037  0.1197
 4551TIP3    H235213   6.625   5.370   8.719 -1.4955  0.2997 -0.1791
 4552TIP3   OH235214   5.007   5.737   8.792  0.2341 -0.1836 -0.0320
 4552TIP3    H135215   5.002   5.817   8.843 -0.3123 -0.3643  0.2060
 4552TIP3    H235216   5.098   5.731   8.764  0.6597 -0.3510  1.3475
 4553TIP3   OH235217   5.872   4.019   7.792 -0.3818 -0.5798 -0.7438
 4553TIP3    H135218   5.875   3.992   7.884 -1.3037 -0.8541 -0.7860
 4553TIP3    H235219   5.873   3.937   7.743 -2.1164 -0.5367 -0.9020
 4554TIP3   OH235220   2.674   1.541   8.182 -0.0668  0.7433  0.0491
 4554TIP3    H135221   2.623   1.613   8.144  0.3302  1.5437  1.0011
 4554TIP3    H235222   2.711   1.577   8.262  0.7413 -0.3077  0.1715
 4555TIP3   OH235223   4.527   6.611   0.890  0.5348 -0.2104 -0.2134
 4555TIP3    H135224   4.442   6.589   0.928  1.1188 -0.8485  0.7572
 4555TIP3    H235225   4.506   6.640   0.801 -0.4695 -3.1968 -1.0994
 4556TIP3   OH235226   0.074   5.056   8.223 -0.3428  0.8077  0.0229
 4556TIP3    H135227   0.010   5.056   8.294 -0.1064  4.3147  0.4217
 4556TIP3    H235228   0.030   5.014   8.150 -1.2544 -1.2489  1.6664
 4557TIP3   OH235229   0.652   1.415   2.632 -0.0089  0.0640 -0.3938
 4557TIP3    H135230   0.590   1.478   2.596  1.2392  1.1410 -0.7479
 4557TIP3    H235231   0.736   1.460   2.628  0.4519 -0.3893  2.3837
 4558TIP3   OH235232   5.573   4.986   2.014  0.2672  0.0932  0.7446
 4558TIP3    H135233   5.543   4.897   1.998  1.8451 -0.2148 -0.8222
 4558TIP3    H235234   5.501   5.028   2.061 -0.9902 -1.6527  0.4575
 4559TIP3   OH235235   5.904   0.724   2.480  0.1779  0.2573  0.0031
 4559TIP3    H135236   5.931   0.767   2.398  1.3792  1.0754  0.7897
 4559TIP3    H235237   5.905   0.795   2.545  0.4939 -0.6185  0.9798
 4560TIP3   OH235238   5.805   5.539   2.797  0.0207 -0.6473 -0.7717
 4560TIP3    H135239   5.851   5.466   2.837  0.8942 -0.4921 -1.4659
 4560TIP3    H235240   5.739   5.565   2.862  2.3702  0.6119  1.2395
 4561TIP3   OH235241   3.255   1.589   0.064 -0.0262  0.0882 -0.3066
 4561TIP3    H135242   3.250   1.499   0.034  0.5885 -0.4607  1.1265
 4561TIP3    H235243   3.180   1.598   0.123  0.3985  0.2379  0.2189
 4562TIP3   OH235244   0.044   5.950   2.293 -0.3338 -0.1605 -0.0844
 4562TIP3    H135245   0.093   5.982   2.217 -0.4872  1.3839  0.4408
 4562TIP3    H235246  -0.000   5.871   2.261  2.0107 -1.3144 -0.7236
 4563TIP3   OH235247   1.571   1.232   1.533  0.4649 -0.0813  0.0824
 4563TIP3    H135248   1.520   1.241   1.453  0.8398  0.4172 -0.1088
 4563TIP3    H235249   1.511   1.190   1.595  0.3270 -0.9055 -0.5914
 4564TIP3   OH235250   1.391   1.103   1.675 -0.3170 -0.4031 -0.0177
 4564TIP3    H135251   1.347   1.062   1.750  1.0868 -2.2951 -0.1673
 4564TIP3    H235252   1.350   1.064   1.598 -1.8609  1.6459 -0.3244
 4565TIP3   OH235253   0.287   6.170   7.873 -0.8062  0.6242  0.0884
 4565TIP3    H135254   0.365   6.156   7.819 -0.1687  0.1831  1.1022
 4565TIP3    H235255   0.221   6.114   7.834  0.3962 -1.7682  1.2875
 4566TIP3   OH235256   6.489   0.255   7.416 -0.0591 -0.1584 -0.0784
 4566TIP3    H135257   6.561   0.254   7.353 -1.3701 -1.4131 -1.6693
 4566TIP3    H235258   6.528   0.288   7.497  1.8152  1.0644 -1.3968
 4567TIP3   OH235259   3.118   4.911   1.045  0.1465  0.0308 -0.8057
 4567TIP3    H135260   3.211   4.907   1.023 -0.0285  0.6550 -1.6849
 4567TIP3    H235261   3.084   4.826   1.017  0.3301  0.0422 -1.0688
 4568TIP3   OH235262   5.338   5.033   8.179  0.4563  1.0853  0.0603
 4568TIP3    H135263   5.397   4.985   8.237 -0.5495  0.4452  0.5791
 4568TIP3    H235264   5.304   4.966   8.119 -1.9040  0.8020  1.5501
 4569TIP3   OH235265   3.719   1.614   2.126 -0.3047 -0.4731 -0.4288
 4569TIP3    H135266   3.668   1.694   2.113 -0.3628 -0.1575  1.4488
 4569TIP3    H235267   3.755   1.595   2.040 -0.8025  1.2288 -1.0649
 4570TIP3   OH235268   1.494   6.475   1.391 -0.0031 -0.2458 -0.0053
 4570TIP3    H135269   1.539   6.534   1.451  0.1406  0.1556 -0.5019
 4570TIP3    H235270   1.495   6.520   1.306 -3.0832  0.7079  0.3280
 4571TIP3   OH235271   1.167   6.471   2.178 -0.1314  0.3098  0.5506
 4571TIP3    H135272   1.152   6.559   2.213  0.8024  0.4928  0.5064
 4571TIP3    H235273   1.199   6.484   2.089 -2.9514 -0.1708 -0.6538
 4572TIP3   OH235274   2.133   5.133   2.117 -0.8301  0.1001 -0.1985
 4572TIP3    H135275   2.223   5.124   2.149 -0.8590 -1.5772 -0.4948
 4572TIP3    H235276   2.085   5.173   2.190 -0.1365 -0.2975  0.4864
 4573TIP3   OH235277   2.157   0.828   0.847 -0.8153  0.4373 -0.0313
 4573TIP3    H135278   2.182   0.782   0.928 -3.0471  0.6305  0.8486
 4573TIP3    H235279   2.240   0.858   0.810  0.6671 -2.9817  0.0967
 4574TIP3   OH235280   4.332   0.747   0.362 -0.2595  0.3414  0.4719
 4574TIP3    H135281   4.409   0.796   0.390  0.5825  1.1678 -2.8468
 4574TIP3    H235282   4.258   0.793   0.400  0.6582  2.7533 -0.4997
 4575TIP3   OH235283   5.532   6.076   0.939 -0.1549  0.9172 -0.6219
 4575TIP3    H135284   5.523   6.121   0.855  0.0061  0.6058 -0.8090
 4575TIP3    H235285   5.457   6.016   0.942  1.0190 -0.6622 -1.5450
 4576TIP3   OH235286   1.143   3.404   8.893 -0.0844 -0.6272 -0.6110
 4576TIP3    H135287   1.142   3.442   8.981  1.1106 -0.2871 -0.7191
 4576TIP3    H235288   1.236   3.395   8.873 -0.3330 -2.0717 -1.2570
 4577TIP3   OH235289   4.035   6.164   2.248  0.0442  0.2096  0.3518
 4577TIP3    H135290   4.059   6.230   2.312 -0.2434 -0.3953  1.0932
 4577TIP3    H235291   4.000   6.091   2.299  0.3858 -0.5374 -0.4385
 4578TIP3   OH235292   3.020   4.876   3.496 -0.3861  0.8492 -0.1164
 4578TIP3    H135293   2.966   4.845   3.569  0.2564  1.8730  0.8344
 4578TIP3    H235294   2.962   4.871   3.420 -1.6242  1.3122  0.7548
 4579TIP3   OH235295   4.547   5.830   8.408 -0.2399 -0.3902  0.3804
 4579TIP3    H135296   4.506   5.755   8.365 -2.2477 -0.6546  2.5380
 4579TIP3    H235297   4.641   5.816   8.397 -0.5757 -0.6293 -3.3909
 4580TIP3   OH235298   1.042   3.219   0.912 -0.1720  0.1312  0.3049
 4580TIP3    H135299   0.971   3.162   0.883 -0.4958  0.2821  0.7963
 4580TIP3    H235300   0.999   3.301   0.934  0.3582  0.7650 -0.9256
 4581TIP3   OH235301   6.525   5.155   2.837 -0.0030 -0.3653  0.2728
 4581TIP3    H135302   6.586   5.126   2.769 -0.3994 -0.8490  0.1246
 4581TIP3    H235303   6.529   5.087   2.903 -2.4121 -1.8374 -0.9616
 4582TIP3   OH235304   2.755   5.438   1.115 -0.3178  0.3380 -0.2000
 4582TIP3    H135305   2.756   5.343   1.109 -0.5005  0.4348 -2.3497
 4582TIP3    H235306   2.847   5.463   1.106 -0.1276  0.3551  1.4652
 4583TIP3   OH235307   5.000   2.034   2.404 -0.0458  0.1401  0.3021
 4583TIP3    H135308   4.935   2.014   2.336 -0.9733  1.2745  0.8192
 4583TIP3    H235309   4.958   2.006   2.485  0.1694  0.7412  0.6250
 4584TIP3   OH235310   6.543   6.267   1.233  0.1086 -0.0839 -0.1417
 4584TIP3    H135311   6.621   6.218   1.258 -0.3060  0.9823  3.7670
 4584TIP3    H235312   6.569   6.359   1.238 -1.0276  0.2638 -0.2747
 4585TIP3   OH235313   5.338   5.283   8.039  0.8540 -0.3615  0.3239
 4585TIP3    H135314   5.365   5.212   8.097 -1.3308  0.0868  2.0043
 4585TIP3    H235315   5.421   5.320   8.007  2.0976 -1.7413  1.7708
 4586TIP3   OH235316   1.260   3.299   1.081  0.3384  0.4450 -0.3266
 4586TIP3    H135317   1.299   3.214   1.101  0.0952  0.6641  1.2155
 4586TIP3    H235318   1.187   3.278   1.022 -0.2023 -0.5370  0.6375
 4587TIP3   OH235319   1.553   0.166   1.233  0.6794 -0.6241 -0.0869
 4587TIP3    H135320   1.634   0.216   1.222  1.2018 -1.2705  0.6593
 4587TIP3    H235321   1.548   0.150   1.328 -1.1725  0.7923  0.0905
 4588TIP3   OH235322   5.684   4.814   8.605 -0.0722 -0.9621  0.3414
 4588TIP3    H135323   5.759   4.833   8.548 -0.8820 -0.0832 -0.4661
 4588TIP3    H235324   5.718   4.826   8.694  0.5886  0.0238 -0.0236
 4589TIP3   OH235325   6.566   3.903   0.212  0.8547  0.8098 -0.2524
 4589TIP3    H135326   6.640   3.843   0.202  1.7459  1.8100  0.2251
 4589TIP3    H235327   6.563   3.951   0.129  1.7982  1.9123  0.3196
 4590TIP3   OH235328   3.429   2.421   7.157  0.0785 -0.5628 -0.3176
 4590TIP3    H135329   3.484   2.472   7.216 -1.0416  0.9122 -0.4984
 4590TIP3    H235330   3.480   2.342   7.140  1.3211 -0.0867  0.9686
 4591TIP3   OH235331   2.738   1.643   1.495  0.7103  0.3724 -0.7114
 4591TIP3    H135332   2.827   1.609   1.499  0.7741  0.4767 -1.1425
 4591TIP3    H235333   2.684   1.567   1.474  0.4341 -0.0806  1.4177
 4592TIP3   OH235334   4.023   5.555   2.627  0.5607 -0.3610  0.1487
 4592TIP3    H135335   3.945   5.532   2.577  1.4656 -2.0633 -0.5573
 4592TIP3    H235336   4.071   5.615   2.571 -0.3937  1.0037  0.7491
 4593TIP3   OH235337   4.939   0.892   0.801  0.1250  0.1916 -0.5277
 4593TIP3    H135338   4.892   0.841   0.867  0.4356  0.1539 -0.3355
 4593TIP3    H235339   5.005   0.832   0.767 -1.2918 -0.4568 -2.2974
 4594TIP3   OH235340   1.032   1.557   7.984  1.2465  0.4313 -0.3282
 4594TIP3    H135341   1.004   1.638   7.941 -0.6652 -1.0135 -1.9882
 4594TIP3    H235342   1.092   1.516   7.921  1.1119 -0.1018 -0.1131
 4595TIP3   OH235343   4.862   1.374   1.928  0.0479 -0.1185 -1.1945
 4595TIP3    H135344   4.901   1.351   1.843 -1.9311  0.5991 -2.3718
 4595TIP3    H235345   4.916   1.446   1.961  0.6706 -0.2091 -1.9955
 4596TIP3   OH235346   5.933   3.812   1.848 -0.6181  0.5294  0.1821
 4596TIP3    H135347   5.947   3.725   1.809 -2.3002 -0.2363  1.1826
 4596TIP3    H235348   5.889   3.862   1.780  1.5412  1.0963 -0.8922
 4597TIP3   OH235349   5.521   3.235   1.789  0.0017  0.1634 -0.2336
 4597TIP3    H135350   5.613   3.211   1.772 -0.4118 -1.7908  0.0261
 4597TIP3    H235351   5.474   3.207   1.710 -0.3283  1.7177 -0.6284
 4598TIP3   OH235352   4.042   2.975   7.605 -0.3143  0.1072 -0.1796
 4598TIP3    H135353   4.130   3.012   7.616 -0.2677 -0.2686  0.8265
 4598TIP3    H235354   3.984   3.050   7.603  0.0701  0.4007 -1.4797
 4599TIP3   OH235355   0.587   5.286   7.876  0.1191  0.5497  0.1610
 4599TIP3    H135356   0.514   5.232   7.845  1.6281 -0.6930 -1.4207
 4599TIP3    H235357   0.574   5.292   7.970 -0.8386 -1.4602  0.2165
 4600TIP3   OH235358   1.574   3.424   1.825 -0.2210  0.6005 -0.2275
 4600TIP3    H135359   1.505   3.475   1.782 -0.1287  0.4275 -0.5835
 4600TIP3    H235360   1.598   3.357   1.761  0.3714  0.7441 -0.1628
 4601TIP3   OH235361   5.867   6.614   2.534  0.1690  0.3250 -0.2701
 4601TIP3    H135362   5.874   6.525   2.569 -0.0528  0.2281 -0.4669
 4601TIP3    H235363   5.845   6.668   2.610 -0.6589  0.0637 -0.3093
 4602TIP3   OH235364   1.141   0.807   1.938  1.1936  0.2941 -0.0570
 4602TIP3    H135365   1.111   0.720   1.913 -1.3895  1.3964 -1.2442
 4602TIP3    H235366   1.138   0.807   2.034 -1.7968 -0.1010 -0.0443
 4603TIP3   OH235367   3.261   5.468   2.590 -0.0358 -0.0319  0.3383
 4603TIP3    H135368   3.313   5.441   2.515  0.1425 -1.0225  0.7946
 4603TIP3    H235369   3.222   5.551   2.564 -0.7933 -0.8380 -1.2528
 4604TIP3   OH235370   0.833   4.685   0.607  0.4771 -0.0305  0.2786
 4604TIP3    H135371   0.866   4.730   0.529  0.1273 -1.5645 -0.8057
 4604TIP3    H235372   0.790   4.754   0.657  0.8093  1.0273 -0.8257
 4605TIP3   OH235373   3.375   2.942   1.032 -0.0007 -0.0623  0.0821
 4605TIP3    H135374   3.380   2.874   0.965  3.0030 -1.1356  1.2281
 4605TIP3    H235375   3.388   2.895   1.115 -1.4867  1.4988  1.2936
 4606TIP3   OH235376   3.642   3.378   1.742  0.5691  0.0286 -0.0778
 4606TIP3    H135377   3.617   3.466   1.714  1.2793  0.3661  0.3109
 4606TIP3    H235378   3.731   3.389   1.777  0.0409 -0.5162  1.5338
 4607TIP3   OH235379   5.196   0.702   0.882 -0.5452 -0.2688 -0.5353
 4607TIP3    H135380   5.258   0.629   0.874  0.0776 -0.0439  1.5027
 4607TIP3    H235381   5.247   0.780   0.859 -0.4946 -0.2373 -0.3202
 4608TIP3   OH235382   2.087   6.621   1.245  0.6946  0.3206 -0.2034
 4608TIP3    H135383   2.148   6.695   1.248  0.0618  0.9097 -1.3007
 4608TIP3    H235384   2.087   6.587   1.334  2.9106  0.0472 -0.2376
 4609TIP3   OH235385   4.068   3.148   7.896  0.3276 -0.6828  0.3630
 4609TIP3    H135386   4.162   3.148   7.915  0.2552 -0.9781  0.7261
 4609TIP3    H235387   4.047   3.240   7.879  0.0739 -0.1244  3.2651
 4610TIP3   OH235388   5.193   5.771   2.909 -0.1981  0.0315 -0.9724
 4610TIP3    H135389   5.246   5.711   2.959 -1.3109 -0.7874 -0.7375
 4610TIP3    H235390   5.166   5.839   2.971 -1.0555 -0.6400 -0.5945
 4611TIP3   OH235391   2.561   3.064   8.842  0.1454 -0.0140  0.0097
 4611TIP3    H135392   2.537   3.140   8.790 -0.7902  2.2966  3.5017
 4611TIP3    H235393   2.656   3.062   8.840  0.1432  0.2723 -1.3356
 4612TIP3   OH235394   2.165   6.082   8.712 -0.2917 -0.3682  0.7266
 4612TIP3    H135395   2.228   6.152   8.732 -1.5855  1.3872 -0.9685
 4612TIP3    H235396   2.198   6.006   8.759  1.9986  0.9946  1.4814
 4613TIP3   OH235397   6.410   5.242   7.434  0.2393 -0.1594  0.1280
 4613TIP3    H135398   6.403   5.165   7.379 -0.4900 -0.5305  0.7220
 4613TIP3    H235399   6.343   5.302   7.402  0.8277  0.2591 -0.3566
 4614TIP3   OH235400   5.868   4.836   8.396  0.2414  0.3807 -0.1677
 4614TIP3    H135401   5.817   4.905   8.353  1.3651  1.2713 -0.1396
 4614TIP3    H235402   5.954   4.841   8.354 -0.2075 -2.4048 -1.6064
 4615TIP3   OH235403   5.586   4.392   8.025  0.0316  0.0940  0.0127
 4615TIP3    H135404   5.594   4.482   7.991  4.9100 -0.7971 -2.1487
 4615TIP3    H235405   5.551   4.342   7.952 -0.9198 -0.1180  0.5922
 4616TIP3   OH235406   0.195   6.058   3.022  0.3764 -0.0695  0.3088
 4616TIP3    H135407   0.120   6.020   3.068 -0.1155 -0.4092 -0.7447
 4616TIP3    H235408   0.256   5.985   3.010  0.3453 -0.0670  0.1231
 4617TIP3   OH235409   4.582   5.795   0.214 -0.2125 -0.2802  0.4380
 4617TIP3    H135410   4.591   5.704   0.244  0.4156 -0.2386  0.3939
 4617TIP3    H235411   4.665   5.836   0.239 -0.5856  0.3424  0.6573
 4618TIP3   OH235412   5.914   4.054   8.275  0.2197 -0.0002 -0.5201
 4618TIP3    H135413   5.892   4.079   8.185  0.2391  1.4993 -0.1277
 4618TIP3    H235414   5.839   4.004   8.306 -0.2590  0.4155 -1.0036
 4619TIP3   OH235415   4.306   0.802   0.934 -0.1922 -0.1355 -0.0073
 4619TIP3    H135416   4.240   0.856   0.889 -0.7820 -1.0336 -0.2295
 4619TIP3    H235417   4.358   0.764   0.863  1.2129  1.3239  0.1785
 4620TIP3   OH235418   0.546   1.218   2.310  0.2338 -0.1923 -0.2881
 4620TIP3    H135419   0.640   1.224   2.292  0.7815  1.1435  2.4681
 4620TIP3    H235420   0.515   1.309   2.306 -0.9245 -0.5864 -0.9013
 4621TIP3   OH235421   0.963   0.124   1.516  0.2707 -0.3161 -0.1295
 4621TIP3    H135422   0.929   0.114   1.427  0.3598  0.7173 -0.2944
 4621TIP3    H235423   0.923   0.204   1.548  1.4293  0.1631  0.1900
 4622TIP3   OH235424   0.153   3.899   0.206  0.1012 -0.5057  0.0143
 4622TIP3    H135425   0.146   3.973   0.267 -1.6295  0.9564 -1.8170
 4622TIP3    H235426   0.224   3.924   0.146  2.7450 -2.5426  2.0077
 4623TIP3   OH235427   1.792   1.464   2.279  0.2170  0.2190 -0.3305
 4623TIP3    H135428   1.744   1.399   2.228 -2.1370 -1.8662  4.0178
 4623TIP3    H235429   1.879   1.426   2.290  0.1800 -0.1561 -1.1823
 4624TIP3   OH235430   2.630   2.246   1.268  0.2863 -0.2597 -0.6603
 4624TIP3    H135431   2.701   2.234   1.332 -0.2678  1.6623  0.4027
 4624TIP3    H235432   2.614   2.340   1.268 -3.5768 -0.7664  0.6296
 4625TIP3   OH235433   1.183   6.145   0.352 -0.3131  0.4671  0.6350
 4625TIP3    H135434   1.197   6.067   0.298  0.7201 -1.3905  3.3619
 4625TIP3    H235435   1.096   6.176   0.327  0.7982  0.8945 -3.3332
 4626TIP3   OH235436   1.972   5.310   8.644  0.7440  0.1066  0.5242
 4626TIP3    H135437   1.935   5.229   8.679 -1.6825  0.4772 -0.9173
 4626TIP3    H235438   2.003   5.286   8.556 -2.2478  1.0787 -0.9527
 4627TIP3   OH235439   2.524   5.578   0.027  0.2009  0.1924  0.1085
 4627TIP3    H135440   2.528   5.609  -0.063 -0.3131 -1.4833 -0.5283
 4627TIP3    H235441   2.541   5.656   0.080  0.0426  1.3022 -1.4083
 4628TIP3   OH235442   0.717   4.337   1.776 -0.0835  0.5852  0.2758
 4628TIP3    H135443   0.736   4.332   1.870  0.1295  2.3562  0.3560
 4628TIP3    H235444   0.729   4.429   1.754  1.3099 -0.0363 -1.8123
 4629TIP3   OH235445   0.462   0.002   7.672  0.0094 -0.0960 -0.0281
 4629TIP3    H135446   0.397   0.007   7.601  1.3598  0.0738 -1.2980
 4629TIP3    H235447   0.500   0.089   7.674  1.6801 -0.7725 -0.7769
 4630TIP3   OH235448   1.030   2.203   1.949 -0.1191 -0.3039  0.0192
 4630TIP3    H135449   1.119   2.225   1.923  0.2252 -0.8386  0.7293
 4630TIP3    H235450   1.040   2.142   2.023 -1.0642 -1.1110 -0.4979
 4631TIP3   OH235451   5.026   6.237   0.972 -0.4227 -0.1543  0.5090
 4631TIP3    H135452   5.040   6.200   1.059  0.8808  1.5103  1.0683
 4631TIP3    H235453   4.988   6.323   0.988 -2.3146 -0.7052 -0.6999
 4632TIP3   OH235454   1.126   2.975   3.578  0.0526 -0.2146  0.4512
 4632TIP3    H135455   1.071   3.053   3.576  1.2080  0.6319  0.3088
 4632TIP3    H235456   1.190   2.992   3.648 -1.3860 -2.2796  2.4285
 4633TIP3   OH235457   5.567   2.364   8.571 -0.3014  0.6517 -0.4591
 4633TIP3    H135458   5.512   2.430   8.611 -0.1139 -0.8630  2.5814
 4633TIP3    H235459   5.507   2.310   8.519 -0.8154  1.7990 -1.0848
 4634TIP3   OH235460   3.115   1.334   2.476 -0.3300 -0.1095  0.7926
 4634TIP3    H135461   3.169   1.407   2.449 -0.3432 -0.1139  0.7538
 4634TIP3    H235462   3.090   1.354   2.566  0.6791 -0.6604  1.2118
 4635TIP3   OH235463   3.251   6.377   1.602 -0.3848 -0.2063 -0.7656
 4635TIP3    H135464   3.320   6.438   1.629  0.6693 -0.8203 -2.0021
 4635TIP3    H235465   3.201   6.360   1.683  1.7858 -0.8805  0.5029
 4636TIP3   OH235466   3.498   5.003   2.547 -0.2259 -0.2694  0.6182
 4636TIP3    H135467   3.492   5.054   2.467  4.1473 -1.6646 -0.9189
 4636TIP3    H235468   3.465   4.916   2.523  1.0087 -0.6648  0.2768
 4637TIP3   OH235469   1.134   4.883   0.505  0.4725  0.3241 -0.3574
 4637TIP3    H135470   1.108   4.792   0.515  1.2771  0.2285  1.1908
 4637TIP3    H235471   1.066   4.921   0.449 -0.3557 -1.0054 -0.3136
 4638TIP3   OH235472   3.673   1.493   0.697  0.5648  0.3729 -0.2296
 4638TIP3    H135473   3.635   1.517   0.781  0.5668 -0.7888  0.1255
 4638TIP3    H235474   3.707   1.575   0.661 -3.2989  1.7909 -1.1581
 4639TIP3   OH235475   3.625   2.474   0.418 -0.7580  0.3628 -0.1026
 4639TIP3    H135476   3.586   2.562   0.414  0.9209  1.1310 -0.2831
 4639TIP3    H235477   3.647   2.453   0.328 -1.7069 -0.5356 -0.1439
 4640TIP3   OH235478   5.831   5.915   8.413 -0.1065  0.6204 -0.4145
 4640TIP3    H135479   5.779   5.870   8.480 -0.4846  0.8259 -0.5693
 4640TIP3    H235480   5.817   5.864   8.333 -0.9243  1.2793 -0.7051
 4641TIP3   OH235481   5.384   0.752   8.797  0.5577 -0.0787 -0.3119
 4641TIP3    H135482   5.405   0.662   8.770  0.2571  0.0245 -0.9272
 4641TIP3    H235483   5.433   0.807   8.736 -0.1058  0.1657 -0.6387
 4642TIP3   OH235484   0.999   2.562   0.942  0.3331 -0.3480 -0.2297
 4642TIP3    H135485   0.912   2.536   0.974 -0.5950  1.8139 -0.8165
 4642TIP3    H235486   1.041   2.604   1.017  0.1105  0.3069 -0.4681
 4643TIP3   OH235487   2.190   5.428   2.894  0.1195 -0.1034 -0.3506
 4643TIP3    H135488   2.131   5.438   2.819 -0.0631 -0.9642 -0.3296
 4643TIP3    H235489   2.243   5.351   2.872 -1.3341 -1.6441  1.3279
 4644TIP3   OH235490   3.225   3.400   2.110  0.3174  0.6233 -0.4587
 4644TIP3    H135491   3.272   3.424   2.189  0.0373 -0.1743 -0.0373
 4644TIP3    H235492   3.252   3.309   2.093 -0.0975  0.5804 -0.9247
 4645TIP3   OH235493   6.135   3.096   3.259  0.0394 -0.6424 -0.1728
 4645TIP3    H135494   6.059   3.125   3.209  0.8437  2.5143  0.1703
 4645TIP3    H235495   6.135   3.152   3.337  0.3057 -3.6128  2.1185
 4646TIP3   OH235496   2.103   2.024   1.704 -0.2596 -0.0598 -0.0867
 4646TIP3    H135497   2.054   2.106   1.705 -2.0139 -0.8211 -4.1148
 4646TIP3    H235498   2.170   2.037   1.636  1.1651 -1.1560  1.0340
 4647TIP3   OH235499   4.157   0.078   8.384 -0.2613 -0.5422 -0.1875
 4647TIP3    H135500   4.201   0.162   8.374  1.2178 -1.0883  1.3298
 4647TIP3    H235501   4.119   0.081   8.472 -0.4504 -1.3584 -0.2336
 4648TIP3   OH235502   2.712   4.262   1.802  0.2129 -0.1202  0.0351
 4648TIP3    H135503   2.780   4.211   1.846  0.9315 -0.8478 -1.8353
 4648TIP3    H235504   2.757   4.339   1.769  0.0664 -0.4083 -0.8616
 4649TIP3   OH235505   3.181   0.518   8.025  0.2911 -0.1675 -0.0022
 4649TIP3    H135506   3.088   0.506   8.042 -0.0053  0.3198 -1.2121
 4649TIP3    H235507   3.185   0.582   7.954  1.6061  1.1229  1.1681
 4650TIP3   OH235508   1.278   1.750   0.686  0.1611  0.3760  0.6914
 4650TIP3    H135509   1.192   1.789   0.701  0.4683  2.0134 -1.3440
 4650TIP3    H235510   1.334   1.787   0.755 -0.2875  1.0012  0.7249
 4651TIP3   OH235511   3.630   4.758   2.909  0.5806  0.2701 -0.1517
 4651TIP3    H135512   3.615   4.850   2.889  0.7368 -0.0050 -1.6920
 4651TIP3    H235513   3.651   4.756   3.002  4.3818  2.2787 -0.7797
 4652TIP3   OH235514   0.079   2.941   7.840 -0.2308 -0.3584  0.4993
 4652TIP3    H135515   0.088   3.006   7.770  0.1581 -1.4906 -0.5385
 4652TIP3    H235516   0.168   2.928   7.873  0.6284 -3.7296 -2.5142
 4653TIP3   OH235517   2.413   4.732   1.073  0.4758  0.1265  0.0410
 4653TIP3    H135518   2.390   4.788   0.999  0.2413  2.1559  1.5631
 4653TIP3    H235519   2.438   4.793   1.142  1.2449 -1.7173  1.4734
 4654TIP3   OH235520   3.180   3.936   0.121 -0.4417  0.2397 -0.2819
 4654TIP3    H135521   3.105   3.908   0.069 -0.4331 -0.2459 -0.0348
 4654TIP3    H235522   3.165   3.900   0.208 -0.3005  0.7880 -0.0237
 4655TIP3   OH235523   3.807   0.115   2.701  0.2104 -0.1197  0.4111
 4655TIP3    H135524   3.862   0.078   2.771  1.0479 -0.0599 -0.2037
 4655TIP3    H235525   3.868   0.137   2.631 -0.7273 -1.1467 -0.7797
 4656TIP3   OH235526   0.517   2.697   0.222 -0.3311  0.2266 -0.0582
 4656TIP3    H135527   0.436   2.721   0.267  0.4952  0.9675  1.1087
 4656TIP3    H235528   0.586   2.739   0.274  0.8812 -1.2178 -0.4222
 4657TIP3   OH235529   4.779   3.655   0.911  0.0681  0.0766  0.6742
 4657TIP3    H135530   4.746   3.664   0.821 -0.5489 -1.8987  0.6575
 4657TIP3    H235531   4.811   3.743   0.933 -1.5634  1.1084 -0.7564
 4658TIP3   OH235532   3.826   4.054   2.101  0.4275 -0.0715 -0.7735
 4658TIP3    H135533   3.859   4.136   2.138 -0.0976 -0.0453 -0.3510
 4658TIP3    H235534   3.877   4.041   2.021  1.1355  0.2052 -0.3749
 4659TIP3   OH235535   5.199   4.092   1.961  0.2071 -0.6715 -0.2312
 4659TIP3    H135536   5.222   4.044   1.881  1.7119 -0.6189  0.1440
 4659TIP3    H235537   5.249   4.048   2.030 -0.2779 -0.0702  0.5134
 4660TIP3   OH235538   5.676   4.121   1.383 -0.8243  0.6131 -0.1175
 4660TIP3    H135539   5.678   4.161   1.470 -0.1132 -2.1381  1.2742
 4660TIP3    H235540   5.751   4.061   1.383 -2.8757 -2.1872 -1.1534
 4661TIP3   OH235541   0.538   6.565   2.290  0.6498 -0.2866 -0.3622
 4661TIP3    H135542   0.562   6.514   2.367  2.9631 -0.2055 -0.9701
 4661TIP3    H235543   0.512   6.651   2.325 -1.0155 -1.0848  0.4853
 4662TIP3   OH235544   5.292   3.902   2.147 -0.2148  0.0696 -0.1460
 4662TIP3    H135545   5.384   3.901   2.174  0.0414 -0.3181 -1.0028
 4662TIP3    H235546   5.281   3.820   2.098 -0.6505  0.7663 -1.2371
 4663TIP3   OH235547   0.152   5.354   2.867  0.6038  0.3359  0.4600
 4663TIP3    H135548   0.142   5.434   2.919  1.4525  0.2908  0.7212
 4663TIP3    H235549   0.122   5.284   2.924 -0.9590  0.5435 -0.0825
 4664TIP3   OH235550   2.072   6.043   0.665  0.0702  0.2132 -0.8060
 4664TIP3    H135551   2.143   6.048   0.601  0.3010 -0.0404 -0.5692
 4664TIP3    H235552   1.994   6.023   0.614 -0.1976  2.3353 -1.3352
 4665TIP3   OH235553   5.426   4.426   8.469 -0.3176 -1.1075  0.4405
 4665TIP3    H135554   5.377   4.465   8.541  1.3272 -0.7935  1.4359
 4665TIP3    H235555   5.361   4.415   8.399 -1.2096  2.0859  0.5828
 4666TIP3   OH235556   2.219   6.239   8.492 -0.0567  0.3431  0.4323
 4666TIP3    H135557   2.194   6.161   8.541  0.2996  1.4492  2.4657
 4666TIP3    H235558   2.245   6.205   8.406 -0.7937 -1.6576  0.9364
 4667TIP3   OH235559   2.668   1.504   1.007  0.7155 -0.1589 -0.4557
 4667TIP3    H135560   2.643   1.420   1.047  0.0177 -0.0372 -0.6131
 4667TIP3    H235561   2.639   1.570   1.071  1.0705 -0.0306 -0.4279
 4668TIP3   OH235562   4.235   4.368   8.439  0.0167 -0.3494 -0.4086
 4668TIP3    H135563   4.225   4.392   8.531 -3.2271  1.3485 -1.0609
 4668TIP3    H235564   4.185   4.287   8.429 -0.5233  0.0390 -0.8745
 4669TIP3   OH235565   6.199   4.079   7.768 -0.5711  0.3388 -0.2485
 4669TIP3    H135566   6.150   4.088   7.850 -0.5831 -1.3304 -0.0305
 4669TIP3    H235567   6.273   4.139   7.778 -1.6830  1.7312  0.0803
 4670TIP3   OH235568   2.701   3.356   7.915  0.0106  0.0950  0.1183
 4670TIP3    H135569   2.680   3.366   8.007 -1.9342  1.8392 -0.4353
 4670TIP3    H235570   2.630   3.301   7.880  0.3309  0.0421 -0.4670
 4671TIP3   OH235571   2.468   3.986   0.317  1.0102 -0.5460 -0.5323
 4671TIP3    H135572   2.391   4.039   0.294 -0.2431 -1.3605  1.4710
 4671TIP3    H235573   2.440   3.896   0.300  0.8576 -0.9830  1.6727
 4672TIP3   OH235574   3.641   5.828   1.730 -0.2494  0.5194  0.5324
 4672TIP3    H135575   3.720   5.774   1.737  0.0032  0.8679  0.3771
 4672TIP3    H235576   3.618   5.824   1.637  0.1219  1.1785  0.4104
 4673TIP3   OH235577   6.313   0.728   1.351 -0.5051 -0.3553  0.2655
 4673TIP3    H135578   6.261   0.653   1.322  2.0936 -1.7776 -1.1679
 4673TIP3    H235579   6.276   0.753   1.435 -1.3409 -3.4618  0.9333
 4674TIP3   OH235580   0.309   2.627   0.945 -0.0893 -0.3296  0.1082
 4674TIP3    H135581   0.331   2.688   1.016  1.0740 -1.2479  0.5602
 4674TIP3    H235582   0.379   2.639   0.881 -0.3358 -0.5666 -0.2090
 4675TIP3   OH235583   4.482   5.961   1.479 -0.6292 -0.2894 -0.3766
 4675TIP3    H135584   4.423   5.996   1.413  0.3602  0.5805 -0.8320
 4675TIP3    H235585   4.566   6.005   1.462  0.4498 -2.2497 -0.4269
 4676TIP3   OH235586   0.893   2.661   8.305  0.4146  0.0773  0.1023
 4676TIP3    H135587   0.929   2.749   8.296 -1.1811  0.6676 -1.0921
 4676TIP3    H235588   0.820   2.672   8.366  0.8495 -0.6440  0.7694
 4677TIP3   OH235589   2.362   3.689   2.693  0.0299  0.0739 -0.1808
 4677TIP3    H135590   2.428   3.746   2.731  0.4359 -1.2895  1.2516
 4677TIP3    H235591   2.289   3.692   2.755 -0.5293  0.1497 -0.8317
 4678TIP3   OH235592   3.795   4.177   1.524  0.0486  0.6896 -0.1608
 4678TIP3    H135593   3.825   4.138   1.606 -1.9048  0.0890  0.3159
 4678TIP3    H235594   3.715   4.224   1.547 -0.1795  1.0799 -1.6112
 4679TIP3   OH235595   6.518   3.491   8.558  0.6414  0.3957  0.2482
 4679TIP3    H135596   6.429   3.510   8.589 -0.5108 -0.2975 -2.3516
 4679TIP3    H235597   6.573   3.558   8.600 -0.8090  0.0538  2.9652
 4680TIP3   OH235598   0.468   1.986   0.491  0.0107  0.0864  0.3245
 4680TIP3    H135599   0.379   1.989   0.525  0.1939  0.6924  0.7754
 4680TIP3    H235600   0.474   2.061   0.432  0.3695  0.3509  0.6880
 4681TIP3   OH235601   1.071   3.106   7.873  0.2754  0.2557  0.1390
 4681TIP3    H135602   1.108   3.032   7.920 -1.0488 -0.4775  0.0808
 4681TIP3    H235603   1.146   3.161   7.850  1.1938 -0.6910  0.8278
 4682TIP3   OH235604   3.264   0.655   1.677  0.3779  0.3010 -0.4645
 4682TIP3    H135605   3.206   0.585   1.647 -0.0393 -0.3211  1.6754
 4682TIP3    H235606   3.214   0.735   1.663 -0.2138 -0.0620 -0.4637
 4683TIP3   OH235607   3.117   5.665   8.571  0.2784  0.5095  0.0099
 4683TIP3    H135608   3.109   5.759   8.555 -0.5394  0.4258 -0.0777
 4683TIP3    H235609   3.207   5.654   8.602 -0.6039  1.8101  3.5149
 4684TIP3   OH235610   3.627   2.345   8.126  0.8414  0.1142  0.1372
 4684TIP3    H135611   3.715   2.376   8.102  0.4590  0.7785 -0.4327
 4684TIP3    H235612   3.589   2.315   8.044 -0.9779  3.6437 -0.4930
 4685TIP3   OH235613   1.084   1.977   8.657  0.0144 -0.3370  0.3792
 4685TIP3    H135614   1.079   1.982   8.562 -0.0174 -1.6769  0.2795
 4685TIP3    H235615   1.174   2.004   8.678 -0.5806  1.9896  0.1884
 4686TIP3   OH235616   2.438   1.270   3.004  0.1700  0.3452  0.3688
 4686TIP3    H135617   2.369   1.210   2.973  0.8142  0.2875 -1.0383
 4686TIP3    H235618   2.396   1.356   3.004 -0.0283  0.2528 -0.0636
 4687TIP3   OH235619   2.588   3.898   8.534 -0.3829  0.0264  0.6554
 4687TIP3    H135620   2.646   3.965   8.570 -0.8385  0.9524 -0.2808
 4687TIP3    H235621   2.503   3.915   8.575 -1.6586  2.8318 -2.5839
 4688TIP3   OH235622   1.853   1.359   1.913  0.7645 -0.0427 -0.0086
 4688TIP3    H135623   1.790   1.350   1.985  1.1612  1.9245  0.6546
 4688TIP3    H235624   1.914   1.286   1.925 -0.4559 -1.0641  0.2713
 4689TIP3   OH235625   0.187   4.191   0.745 -0.7056  0.5491 -0.2874
 4689TIP3    H135626   0.164   4.162   0.833  1.7492 -1.5687 -0.2259
 4689TIP3    H235627   0.202   4.110   0.696  0.8436  1.6799 -1.8030
 4690TIP3   OH235628   4.042   0.365   1.671 -0.2925  0.3727 -0.2631
 4690TIP3    H135629   4.133   0.395   1.680  0.4965 -1.6463 -0.8534
 4690TIP3    H235630   4.044   0.306   1.596 -1.3820 -2.2288  1.6207
 4691TIP3   OH235631   4.033   5.941   8.826 -0.4412 -0.0628  0.3841
 4691TIP3    H135632   4.094   6.000   8.869 -0.5629 -0.3428  0.9589
 4691TIP3    H235633   3.967   5.998   8.787  0.6477  0.2894 -1.0138
 4692TIP3   OH235634   1.624   3.893   0.212 -0.4711 -0.3993  0.1322
 4692TIP3    H135635   1.593   3.805   0.189 -2.4845  0.2160  0.3360
 4692TIP3    H235636   1.637   3.936   0.128 -1.5296 -0.2219  0.0575
 4693TIP3   OH235637   3.749   6.157   8.530 -0.3082  0.0788  0.4194
 4693TIP3    H135638   3.713   6.070   8.512  0.5337 -0.3510  0.7653
 4693TIP3    H235639   3.721   6.210   8.455  1.5722 -1.1992 -1.3088
 4694TIP3   OH235640   6.331   1.849   8.232  0.2043 -0.0274  0.0962
 4694TIP3    H135641   6.322   1.939   8.264 -1.4436 -0.3636  0.6422
 4694TIP3    H235642   6.373   1.802   8.305 -0.1994 -0.0008  0.3468
 4695TIP3   OH235643   5.589   2.434   2.629 -0.0017 -0.1376 -0.4926
 4695TIP3    H135644   5.635   2.364   2.583  0.2421 -0.5962  0.4124
 4695TIP3    H235645   5.513   2.391   2.668  0.5668 -0.1091  0.7292
 4696TIP3   OH235646   6.537   4.125   8.543 -0.7113 -0.1348 -0.0985
 4696TIP3    H135647   6.526   4.037   8.577 -1.9436 -0.5693 -1.5306
 4696TIP3    H235648   6.512   4.119   8.451  0.7262  1.3803 -0.6400
 4697TIP3   OH235649   1.529   4.248   1.970  0.3670 -0.4991  0.0378
 4697TIP3    H135650   1.532   4.336   1.933 -0.6757 -0.2617  0.4925
 4697TIP3    H235651   1.505   4.261   2.062  0.5120 -1.2378  0.1848
 4698TIP3   OH235652   2.793   0.407   0.434 -0.7662  0.0657  0.1402
 4698TIP3    H135653   2.806   0.457   0.353 -1.0382 -0.6569 -0.3636
 4698TIP3    H235654   2.700   0.385   0.433 -0.2685 -2.2203 -0.7159
 4699TIP3   OH235655   1.340   1.489   1.718 -0.7565 -1.1682 -0.0706
 4699TIP3    H135656   1.321   1.397   1.701  0.2250 -1.2143 -1.0066
 4699TIP3    H235657   1.424   1.489   1.764  0.3074 -0.6692 -1.9258
 4700TIP3   OH235658   3.725   2.870   8.456 -0.1749 -0.4149  0.0216
 4700TIP3    H135659   3.801   2.822   8.424 -0.4846  0.0853 -1.5763
 4700TIP3    H235660   3.744   2.888   8.548  0.7816 -1.9242  0.1463
 4701TIP3   OH235661   1.294   5.442   7.363  0.0011 -0.0700  0.0738
 4701TIP3    H135662   1.317   5.532   7.385 -0.4726 -0.4669  2.5340
 4701TIP3    H235663   1.268   5.445   7.271  3.6866  1.5271 -1.0922
 4702TIP3   OH235664   0.924   0.988   1.417 -0.5215  0.2301 -0.2600
 4702TIP3    H135665   0.869   1.057   1.454 -2.0303 -1.7902  1.5248
 4702TIP3    H235666   0.864   0.915   1.402  1.2160 -1.1391 -0.8681
 4703TIP3   OH235667   4.645   3.701   0.637 -0.0681 -0.0559 -0.3599
 4703TIP3    H135668   4.624   3.768   0.572 -1.0363  0.1227  0.1260
 4703TIP3    H235669   4.720   3.655   0.600  1.1444  1.8009 -0.3570
 4704TIP3   OH235670   1.436   6.188   7.828 -0.2866  0.0139  0.0795
 4704TIP3    H135671   1.432   6.280   7.855 -2.8590 -0.0814  0.2837
 4704TIP3    H235672   1.454   6.140   7.909  0.1358  0.2767  0.1418
 4705TIP3   OH235673   4.357   6.045   2.975  0.3564 -0.2700  0.1063
 4705TIP3    H135674   4.305   5.987   3.030 -0.4217 -0.4404 -0.7918
 4705TIP3    H235675   4.371   6.123   3.028 -0.1516 -0.5340  0.6351
 4706TIP3   OH235676   0.905   2.125   2.295  0.2793 -0.2921 -0.1985
 4706TIP3    H135677   0.893   2.198   2.236  0.3129 -1.6195 -1.9257
 4706TIP3    H235678   0.982   2.079   2.261 -0.0290 -1.4088  0.5461
 4707TIP3   OH235679   5.083   2.496   8.564  0.4074 -0.1889  0.1755
 4707TIP3    H135680   5.098   2.480   8.657 -0.4328  0.8545  0.5105
 4707TIP3    H235681   5.164   2.469   8.521 -0.1700 -3.4112  0.8552
 4708TIP3   OH235682   0.871   5.887   1.487  0.3101  0.3967  0.1291
 4708TIP3    H135683   0.891   5.980   1.498 -0.5571  0.5428  0.5192
 4708TIP3    H235684   0.800   5.870   1.549 -1.6124  0.1843 -2.0146
 4709TIP3   OH235685   1.241   5.894   8.452  0.0462 -0.4028  0.1726
 4709TIP3    H135686   1.304   5.824   8.472 -1.2520 -1.4104  0.9541
 4709TIP3    H235687   1.247   5.906   8.357 -0.0563 -1.9772 -0.0642
 4710TIP3   OH235688   3.734   0.475   2.088 -0.0526 -0.2609  0.0686
 4710TIP3    H135689   3.731   0.393   2.039 -0.8628 -0.8687  1.0756
 4710TIP3    H235690   3.750   0.447   2.179 -0.4247  0.6934  0.4372
 4711TIP3   OH235691   2.436   0.585   1.754 -0.2302  0.8905 -0.1024
 4711TIP3    H135692   2.486   0.541   1.684 -1.1479 -1.1363  0.4551
 4711TIP3    H235693   2.395   0.659   1.710  0.8490  0.8472 -1.2539
 4712TIP3   OH235694   4.063   2.259   7.561  0.3908 -0.3846  0.1756
 4712TIP3    H135695   4.123   2.196   7.601  0.4204 -0.4085  0.0950
 4712TIP3    H235696   3.982   2.210   7.548  0.8483 -0.8379 -1.1882
 4713TIP3   OH235697   5.795   4.343   0.129 -0.1389 -0.1559  0.5125
 4713TIP3    H135698   5.786   4.346   0.224 -0.6153 -0.8186  0.4992
 4713TIP3    H235699   5.756   4.259   0.104  1.0821 -0.5469 -0.1578
 4714TIP3   OH235700   1.937   5.598   2.733  0.0143 -0.4293 -0.3238
 4714TIP3    H135701   2.030   5.592   2.713  0.1186 -0.0199  0.0292
 4714TIP3    H235702   1.899   5.519   2.693  0.5434 -0.7107 -0.2814
 4715TIP3   OH235703   6.187   4.872   0.142 -0.2259 -0.4195 -0.3250
 4715TIP3    H135704   6.182   4.817   0.219  1.1522 -0.7379 -0.4291
 4715TIP3    H235705   6.272   4.916   0.150 -1.1355  1.4399 -0.4152
 4716TIP3   OH235706   0.234   2.719   0.606 -0.2928  0.2353  0.7143
 4716TIP3    H135707   0.269   2.799   0.646 -0.1964  0.2640  0.5726
 4716TIP3    H235708   0.269   2.648   0.659 -0.6489  0.3020  1.0470
 4717TIP3   OH235709   5.639   4.459   2.408 -0.3572 -0.3955 -0.3283
 4717TIP3    H135710   5.568   4.507   2.451  1.6209  1.4828  1.0899
 4717TIP3    H235711   5.657   4.385   2.466  0.2894  0.4105  0.5264
 4718TIP3   OH235712   6.649   1.307   0.547  0.6416 -0.1244  0.0730
 4718TIP3    H135713   6.619   1.393   0.576  0.7327  0.2625 -0.9410
 4718TIP3    H235714   6.568   1.262   0.522  0.7077  0.1598 -0.6709
 4719TIP3   OH235715   3.692   1.859   8.591  0.2614  0.2577 -0.3019
 4719TIP3    H135716   3.706   1.821   8.677  0.5779 -0.8037 -0.8068
 4719TIP3    H235717   3.772   1.839   8.542  0.9915  2.6830 -0.2186
 4720TIP3   OH235718   1.996   5.435   1.475  0.0419  0.3323 -0.0792
 4720TIP3    H135719   2.020   5.438   1.567 -0.3857  1.9928  0.0088
 4720TIP3    H235720   1.965   5.345   1.461  1.2578 -0.2933  1.0669
 4721TIP3   OH235721   4.603   6.147   7.985 -0.0266 -0.0189  0.3316
 4721TIP3    H135722   4.587   6.053   7.995 -0.1108  0.0366  0.7569
 4721TIP3    H235723   4.643   6.173   8.068  0.3373  0.2496  0.0715
 4722TIP3   OH235724   6.641   1.592   8.483  0.0117  0.0464  0.6138
 4722TIP3    H135725   6.720   1.568   8.532  0.1776 -1.2401 -0.2354
 4722TIP3    H235726   6.665   1.671   8.435  0.5730  0.0434  0.8839
 4723TIP3   OH235727   3.051   2.502   2.672 -0.2472 -0.3282  0.2133
 4723TIP3    H135728   2.977   2.494   2.612  0.3444  0.2653 -0.6168
 4723TIP3    H235729   3.038   2.432   2.736 -1.2732 -0.5210 -0.1871
 4724TIP3   OH235730   6.529   2.209   2.260 -0.2668 -0.1592 -0.0177
 4724TIP3    H135731   6.507   2.227   2.352  0.7740  1.0267  0.0333
 4724TIP3    H235732   6.555   2.294   2.225 -1.6948 -0.3950 -1.7380
 4725TIP3   OH235733   2.460   6.384   2.140  0.4389  0.3712  0.2426
 4725TIP3    H135734   2.502   6.314   2.090  1.1231 -0.5945  2.1135
 4725TIP3    H235735   2.493   6.374   2.229 -0.8299  1.9811  0.9412
 4726TIP3   OH235736   0.791   6.684   2.289  0.2065 -0.8594 -0.0169
 4726TIP3    H135737   0.698   6.701   2.275  0.4050  2.4220  1.5558
 4726TIP3    H235738   0.834   6.719   2.211  0.2818  1.8828  1.1319
 4727TIP3   OH235739   1.101   1.765   2.769 -0.3250  0.2050 -0.0298
 4727TIP3    H135740   1.109   1.844   2.715 -0.1676  1.3775  1.6419
 4727TIP3    H235741   1.175   1.771   2.830 -1.4287 -0.2132  1.3865
 4728TIP3   OH235742   1.727   1.981   1.392  0.4723  0.0247  0.0383
 4728TIP3    H135743   1.769   1.900   1.423  1.0528  1.2992  2.8954
 4728TIP3    H235744   1.794   2.048   1.403 -1.5068  1.7520  2.7238
 4729TIP3   OH235745   2.522   1.189   0.555 -1.0206  0.5602 -0.3713
 4729TIP3    H135746   2.482   1.240   0.485  0.8370  1.2211 -1.0151
 4729TIP3    H235747   2.615   1.187   0.533 -0.5034  0.0838  1.6457
 4730TIP3   OH235748   2.286   1.202   2.041  0.4543 -0.2870 -0.7970
 4730TIP3    H135749   2.285   1.130   2.103  0.7179 -0.0772 -0.5469
 4730TIP3    H235750   2.378   1.212   2.016  0.9471  1.8200  1.3829
 4731TIP3   OH235751   6.493   5.575   0.024 -0.4145  0.2395 -0.0844
 4731TIP3    H135752   6.437   5.519  -0.029  0.5940  1.0033 -2.0858
 4731TIP3    H235753   6.444   5.657   0.032 -0.2396  0.4026 -0.5853
 4732TIP3   OH235754   5.667   2.931   8.750 -1.0433 -0.3647  0.0644
 4732TIP3    H135755   5.659   2.945   8.845  1.2347  1.1835  0.1101
 4732TIP3    H235756   5.737   2.867   8.741  0.1699  0.9728 -0.5432
 4733TIP3   OH235757   3.689   3.202   7.767 -0.2751 -0.0143  0.5133
 4733TIP3    H135758   3.607   3.163   7.735 -0.2055 -1.0270  1.4801
 4733TIP3    H235759   3.672   3.218   7.860  0.4815  0.1604  0.6252
 4734TIP3   OH235760   5.542   4.595   7.456  0.6628  0.5646  0.0668
 4734TIP3    H135761   5.589   4.642   7.524 -1.3975  2.0039  0.5940
 4734TIP3    H235762   5.532   4.659   7.385 -0.7306  0.4451  0.1146
 4735TIP3   OH235763   1.077   6.504   7.763  0.4419  0.3483  0.6890
 4735TIP3    H135764   1.096   6.446   7.689 -0.5133  0.2177  0.5366
 4735TIP3    H235765   0.989   6.479   7.791  1.6860 -1.4334  3.5463
 4736TIP3   OH235766   5.556   5.665   2.605 -0.1928  0.8030  0.3034
 4736TIP3    H135767   5.563   5.705   2.519  0.0541 -1.0264 -0.5812
 4736TIP3    H235768   5.465   5.680   2.631 -0.7945 -0.1748 -1.1190
 4737TIP3   OH235769   0.942   2.699   3.349  0.6833 -0.3296  0.1793
 4737TIP3    H135770   0.852   2.669   3.364  0.4438  0.4278  0.2839
 4737TIP3    H235771   0.997   2.623   3.371 -0.0475 -1.9499 -2.8869
 4738TIP3   OH235772   2.758   2.144   8.020 -0.1187  0.2603 -0.2516
 4738TIP3    H135773   2.709   2.205   7.966 -0.1692 -1.1872 -1.9350
 4738TIP3    H235774   2.844   2.185   8.031  0.2614  0.1445 -2.3877
 4739TIP3   OH235775   1.691   3.973   8.876  0.4828  0.2113  0.2632
 4739TIP3    H135776   1.615   3.976   8.819  1.6625  1.7998 -1.3336
 4739TIP3    H235777   1.732   3.889   8.857  0.2792  0.2689 -0.4659
 4740TIP3   OH235778   4.554   4.244   8.399 -0.3434 -0.0510  0.4143
 4740TIP3    H135779   4.587   4.300   8.328 -0.7277 -1.2606 -0.7393
 4740TIP3    H235780   4.467   4.279   8.419 -1.4340 -1.3959 -1.6809
 4741TIP3   OH235781   0.487   5.344   1.731  0.2099  0.3348 -0.7198
 4741TIP3    H135782   0.515   5.410   1.668  0.2351  1.4211  0.3946
 4741TIP3    H235783   0.568   5.299   1.756  0.6732  1.8655  0.6948
 4742TIP3   OH235784   2.026   4.041   7.922  0.0600 -0.7139  0.2968
 4742TIP3    H135785   2.011   3.956   7.963  1.2094 -0.6185  0.9731
 4742TIP3    H235786   2.073   4.092   7.989 -1.2516  0.7130  0.1782
 4743TIP3   OH235787   3.388   2.615   1.664 -0.6868  0.4089 -1.0315
 4743TIP3    H135788   3.388   2.649   1.575  2.6288  0.5887 -1.0830
 4743TIP3    H235789   3.457   2.664   1.709  0.6439 -2.5143  0.4167
 4744TIP3   OH235790   3.286   3.576   1.897  0.0267 -0.3161  0.0616
 4744TIP3    H135791   3.376   3.601   1.917  0.8766 -2.3808 -0.8949
 4744TIP3    H235792   3.253   3.539   1.979  1.3791 -2.9804 -0.4772
 4745TIP3   OH235793   2.474   4.658   8.015  0.3430  0.1021  0.3653
 4745TIP3    H135794   2.401   4.680   8.072  1.7120  0.8661  1.9041
 4745TIP3    H235795   2.434   4.636   7.931 -1.6601 -0.0381  1.3252
 4746TIP3   OH235796   2.434   5.251   1.054  0.9635 -0.2593  0.5228
 4746TIP3    H135797   2.353   5.252   1.104  1.1586 -2.1784  0.9441
 4746TIP3    H235798   2.501   5.279   1.117  0.9954 -1.2228  0.9267
 4747TIP3   OH235799   3.015   0.056   8.774  0.6020  0.0329 -0.1290
 4747TIP3    H135800   2.951   0.127   8.762 -0.9769 -1.5821 -1.8745
 4747TIP3    H235801   2.988   0.014   8.855 -2.3751 -2.2342 -2.0896
 4748TIP3   OH235802   6.464   4.239   2.289  0.3245  0.2260  0.8305
 4748TIP3    H135803   6.409   4.172   2.248 -0.8904  1.3595  0.5054
 4748TIP3    H235804   6.406   4.282   2.352  0.7137  1.6561  0.2652
 4749TIP3   OH235805   5.385   2.387   0.762  0.1340 -0.5876  0.0047
 4749TIP3    H135806   5.359   2.451   0.828 -0.4666 -0.5017 -0.3059
 4749TIP3    H235807   5.455   2.336   0.803 -0.2688 -0.5699  0.7130
 4750TIP3   OH235808   4.126   4.680   0.260  0.5899 -0.0711 -0.6041
 4750TIP3    H135809   4.119   4.703   0.352 -0.4745 -1.2385 -0.3615
 4750TIP3    H235810   4.127   4.764   0.214  0.0649  0.5102  0.4045
 4751TIP3   OH235811   6.398   3.398   2.347  0.0526 -0.2277 -0.0818
 4751TIP3    H135812   6.477   3.442   2.378 -0.5338 -1.1421  3.0265
 4751TIP3    H235813   6.380   3.331   2.412 -3.1110 -0.2847 -0.8368
 4752TIP3   OH235814   6.315   3.772   1.464  0.1829 -0.0205  0.2334
 4752TIP3    H135815   6.272   3.690   1.439  0.4322 -1.1391  3.0082
 4752TIP3    H235816   6.254   3.813   1.525 -0.0742  2.1131 -1.3498
 4753TIP3   OH235817   3.822   4.525   2.414  0.1655  0.3131 -0.5221
 4753TIP3    H135818   3.872   4.580   2.353 -0.5769  1.1335 -0.4153
 4753TIP3    H235819   3.749   4.580   2.441 -0.2670 -0.5278  0.0672
 4754TIP3   OH235820   0.240   4.872   2.345  0.0678  0.1173  0.0760
 4754TIP3    H135821   0.267   4.854   2.255  1.3190 -0.0561  0.4695
 4754TIP3    H235822   0.197   4.957   2.341 -1.2004 -0.5419 -0.9215
 4755TIP3   OH235823   2.636   2.644   0.635  0.2375 -0.0175  0.7974
 4755TIP3    H135824   2.544   2.661   0.614  0.6442  0.0783 -1.0718
 4755TIP3    H235825   2.685   2.687   0.564  1.5951 -2.4933  0.1174
 4756TIP3   OH235826   0.144   4.642   0.915  0.0564 -0.2592 -0.1700
 4756TIP3    H135827   0.054   4.675   0.923 -0.1905 -1.1167  0.8173
 4756TIP3    H235828   0.167   4.614   1.004  2.7444  3.4997  0.5536
 4757TIP3   OH235829   3.134   5.377   0.934  0.1914 -0.0805  0.1245
 4757TIP3    H135830   3.067   5.424   0.884 -0.4540 -0.9809  0.1101
 4757TIP3    H235831   3.109   5.389   1.026  0.6765  0.5440  0.1820
 4758TIP3   OH235832   3.122   4.783   1.820  0.0124 -0.1196  0.2428
 4758TIP3    H135833   3.075   4.727   1.882 -1.5389 -1.3841 -1.9200
 4758TIP3    H235834   3.157   4.854   1.873  0.6280 -2.2219  2.8708
 4759TIP3   OH235835   6.734   6.143   2.454 -0.4992  0.0056  0.3641
 4759TIP3    H135836   6.751   6.075   2.389  1.3161 -0.0870  0.8937
 4759TIP3    H235837   6.638   6.146   2.461 -0.7280 -0.3618 -1.8724
 4760TIP3   OH235838   0.905   4.823   1.767  0.3378 -0.2421 -0.2135
 4760TIP3    H135839   0.847   4.869   1.707  2.6276 -0.0208 -2.4140
 4760TIP3    H235840   0.891   4.865   1.852 -2.5172 -0.1276 -0.6394
 4761TIP3   OH235841   6.390   5.711   0.622 -0.8421  0.4853 -0.2518
 4761TIP3    H135842   6.459   5.701   0.557  0.2234 -0.6137  0.9835
 4761TIP3    H235843   6.427   5.770   0.688 -2.1113  2.0294 -0.8640
 4762TIP3   OH235844   0.171   6.086   8.784  0.2429 -0.3775 -0.2450
 4762TIP3    H135845   0.190   6.035   8.862  0.4993  1.1072  0.7120
 4762TIP3    H235846   0.161   6.176   8.816 -1.4634  0.0021 -1.6811
 4763TIP3   OH235847   2.121   1.084   2.523 -0.3739  0.2401 -1.0164
 4763TIP3    H135848   2.052   1.149   2.512 -0.5427  0.6139  1.5355
 4763TIP3    H235849   2.081   1.015   2.577  1.3473  0.7862  1.1101
 4764TIP3   OH235850   3.852   2.126   0.367 -1.3231  0.3232  0.1674
 4764TIP3    H135851   3.915   2.058   0.343 -0.4347  1.7844 -2.0140
 4764TIP3    H235852   3.781   2.116   0.303 -0.7476  1.9189 -0.8025
 4765TIP3   OH235853   5.876   1.142   1.018 -0.3500  0.3168  0.3153
 4765TIP3    H135854   5.949   1.165   1.076  0.8171  0.7932 -1.2848
 4765TIP3    H235855   5.908   1.069   0.966 -0.9694  0.5967 -0.4879
 4766TIP3   OH235856   1.490   1.120   1.074 -0.4919  0.0093 -0.1687
 4766TIP3    H135857   1.446   1.196   1.036  2.6036  1.3367 -1.4865
 4766TIP3    H235858   1.458   1.046   1.023 -2.9897  0.4882  0.6137
 4767TIP3   OH235859   5.638   0.379   1.677 -0.0136  0.6465 -0.6261
 4767TIP3    H135860   5.638   0.396   1.772  1.9548  0.5584 -0.5582
 4767TIP3    H235861   5.609   0.462   1.638 -0.1046  0.9319  0.0321
 4768TIP3   OH235862   4.859   3.881   1.001 -0.2665  0.2187 -0.3385
 4768TIP3    H135863   4.942   3.919   1.030  0.6904 -2.7959  1.3175
 4768TIP3    H235864   4.792   3.930   1.048  0.9313 -0.4229  2.2386
 4769TIP3   OH235865   4.923   3.875   2.981 -0.3888  0.4885 -0.2661
 4769TIP3    H135866   4.972   3.796   2.958  0.3293  1.4455 -2.2652
 4769TIP3    H235867   4.987   3.928   3.030 -0.1410  0.7652 -0.8797
 4770TIP3   OH235868   3.590   2.512   1.374 -0.1184  0.0428  0.3750
 4770TIP3    H135869   3.500   2.497   1.344  0.4511 -4.4980  0.2761
 4770TIP3    H235870   3.642   2.505   1.294  0.4880  0.6947  0.7104
 4771TIP3   OH235871   0.490   1.485   0.790 -0.7738 -0.1273  0.0162
 4771TIP3    H135872   0.423   1.477   0.723 -0.9951  0.2029  0.1941
 4771TIP3    H235873   0.452   1.444   0.867 -0.7541  0.0213  0.1045
 4772TIP3   OH235874   4.825   5.585   7.908 -0.6321 -0.1500  0.3079
 4772TIP3    H135875   4.903   5.597   7.854 -1.7189  0.4251 -1.2055
 4772TIP3    H235876   4.848   5.625   7.992  1.1196 -1.1035  0.3249
 4773TIP3   OH235877   2.290   3.401   8.583 -0.2167  0.4883 -0.4567
 4773TIP3    H135878   2.278   3.458   8.659 -0.6678  2.8238 -2.1710
 4773TIP3    H235879   2.203   3.364   8.567 -1.2065  3.2100 -2.1336
 4774TIP3   OH235880   5.493   3.349   0.631  0.3900 -0.1787  0.0524
 4774TIP3    H135881   5.588   3.344   0.639  0.3540  0.3854  0.9458
 4774TIP3    H235882   5.464   3.257   0.631  1.0003 -0.4089 -1.5335
 4775TIP3   OH235883   6.226   0.454   7.792 -0.2440  0.5410 -0.2027
 4775TIP3    H135884   6.172   0.493   7.861 -0.1980 -0.2841  0.3159
 4775TIP3    H235885   6.308   0.503   7.795  0.2287 -0.2762  1.1852
 4776TIP3   OH235886   3.076   3.640   1.266  0.2232 -0.4184  0.6451
 4776TIP3    H135887   3.049   3.690   1.189  2.9513  1.3556  0.6950
 4776TIP3    H235888   3.087   3.550   1.234  0.4969  0.1227 -0.8425
 4777TIP3   OH235889   0.321   1.630   8.836 -0.1431 -0.1320 -0.7824
 4777TIP3    H135890   0.338   1.536   8.832 -0.1946 -0.1652 -0.3005
 4777TIP3    H235891   0.275   1.649   8.754 -0.2713 -0.5579 -0.8144
 4778TIP3   OH235892   5.257   3.427   8.796  0.3969 -0.0366  0.4457
 4778TIP3    H135893   5.305   3.435   8.714 -0.8989 -2.5905 -0.6803
 4778TIP3    H235894   5.317   3.382   8.856  0.0741 -1.6516 -0.3955
 4779TIP3   OH235895   3.951   3.394   1.222 -0.4432 -0.1685  0.6241
 4779TIP3    H135896   3.870   3.344   1.226  0.4209 -1.7946 -0.8595
 4779TIP3    H235897   3.933   3.463   1.158 -0.0985 -1.7755 -1.3239
 4780TIP3   OH235898   4.337   5.058   8.775 -0.5294  0.0698  0.1216
 4780TIP3    H135899   4.381   4.975   8.789 -1.8091 -0.8483 -1.0166
 4780TIP3    H235900   4.257   5.035   8.728 -1.6966  1.7707  1.1585
 4781TIP3   OH235901   6.452   4.066   2.573 -0.4536 -0.0033 -0.1493
 4781TIP3    H135902   6.518   4.030   2.632 -0.2329  0.8713  0.1645
 4781TIP3    H235903   6.474   4.029   2.487 -0.8822 -1.4233  0.3270
 4782TIP3   OH235904   2.261   0.204   1.638  0.7364 -0.5271  0.5482
 4782TIP3    H135905   2.342   0.244   1.607  0.2882 -0.9906 -1.3311
 4782TIP3    H235906   2.268   0.208   1.734  2.1325  1.1005  0.4334
 4783TIP3   OH235907   1.528   1.666   1.878  0.0240  0.5650  0.1069
 4783TIP3    H135908   1.563   1.620   1.954  1.9264  1.5203 -0.1104
 4783TIP3    H235909   1.590   1.645   1.807 -1.4269  0.0928 -1.0737
 4784TIP3   OH235910   2.960   6.339   8.573  0.5413  0.0060 -1.0101
 4784TIP3    H135911   2.930   6.254   8.543  0.1536  0.5632 -2.2747
 4784TIP3    H235912   2.886   6.398   8.556  0.2173  0.3432  1.2430
 4785TIP3   OH235913   2.675   4.494   8.471 -0.6974  0.0054  0.6526
 4785TIP3    H135914   2.654   4.408   8.434  0.1161 -0.4028  1.1143
 4785TIP3    H235915   2.640   4.557   8.407  2.5363 -0.6405 -2.0078
 4786TIP3   OH235916   1.296   6.213   1.202  0.1385 -0.9490  0.1555
 4786TIP3    H135917   1.309   6.129   1.158  1.9923 -0.4296 -0.3784
 4786TIP3    H235918   1.384   6.250   1.209 -0.6422  0.9765  0.3334
 4787TIP3   OH235919   2.556   3.842   2.386  0.2796  0.1342 -0.4230
 4787TIP3    H135920   2.558   3.894   2.305 -1.7660  1.9536  0.6223
 4787TIP3    H235921   2.476   3.791   2.380  1.3551 -1.6361 -0.5892
 4788TIP3   OH235922   1.985   2.582   8.638  0.0300 -0.0664  0.1485
 4788TIP3    H135923   2.026   2.651   8.691 -1.4701 -0.3280  1.7180
 4788TIP3    H235924   2.059   2.531   8.604  1.1330  1.6973 -0.2666
 4789TIP3   OH235925   2.150   4.598   7.964 -0.0343 -0.7745  0.0668
 4789TIP3    H135926   2.085   4.602   7.893  0.1553 -0.4623 -0.0911
 4789TIP3    H235927   2.219   4.541   7.930 -0.4271 -1.4580  0.4030
 4790TIP3   OH235928   4.014   0.069   8.123  0.2368 -0.5841 -0.2000
 4790TIP3    H135929   4.042   0.060   8.214  0.5671 -0.0042 -0.2413
 4790TIP3    H235930   4.083   0.026   8.072  1.2969  1.1612 -0.3267
 4791TIP3   OH235931   5.297   4.371   0.609  0.0136  0.1509  0.4834
 4791TIP3    H135932   5.224   4.336   0.660  0.7373  0.9061  2.1153
 4791TIP3    H235933   5.267   4.458   0.580 -0.7549 -0.6353 -1.2753
 4792TIP3   OH235934   2.035   1.498   8.331  0.2987 -0.4482  0.6345
 4792TIP3    H135935   2.057   1.460   8.246  0.6147  1.8182 -0.3635
 4792TIP3    H235936   1.944   1.474   8.345  0.9200 -2.9649  0.9021
 4793TIP3   OH235937   0.149   1.546   1.809  0.6862 -0.1711 -0.4804
 4793TIP3    H135938   0.100   1.585   1.881  2.4527 -0.7934  1.1403
 4793TIP3    H235939   0.200   1.618   1.772 -0.8702  0.3453 -1.7833
 4794TIP3   OH235940   2.901   0.144   1.461 -0.2089 -0.4159 -0.3557
 4794TIP3    H135941   2.956   0.169   1.535 -1.0351 -1.4537  0.6601
 4794TIP3    H235942   2.913   0.049   1.453 -0.9159 -0.4737 -0.8862
 4795TIP3   OH235943   1.908   2.881   1.094 -0.2141  0.3114 -0.3146
 4795TIP3    H135944   1.841   2.827   1.051  1.1994 -2.1283  0.3641
 4795TIP3    H235945   1.985   2.872   1.037  0.2132  1.1528  0.1242
 4796TIP3   OH235946   4.997   2.389   0.698  0.0970 -0.4044  0.1626
 4796TIP3    H135947   4.915   2.435   0.679 -1.1781 -2.2548  0.9064
 4796TIP3    H235948   4.977   2.297   0.683  0.6881 -1.4671  4.5007
 4797TIP3   OH235949   0.286   4.924   2.666 -0.8640  0.0624 -0.1733
 4797TIP3    H135950   0.261   4.914   2.757  1.4223  0.8215  0.5925
 4797TIP3    H235951   0.263   5.014   2.644 -0.5765  0.1609 -0.0687
 4798TIP3   OH235952   4.232   1.367   2.640  0.3278 -0.2818 -0.3314
 4798TIP3    H135953   4.251   1.290   2.586 -1.5670 -0.7046 -0.4899
 4798TIP3    H235954   4.272   1.440   2.594  1.6845 -1.0743 -0.4709
 4799TIP3   OH235955   1.231   1.055   7.605  0.2073 -0.0058  0.0961
 4799TIP3    H135956   1.192   1.056   7.693  1.6361  1.6620  0.7703
 4799TIP3    H235957   1.278   0.972   7.601  1.0189  0.3646  1.3529
 4800TIP3   OH235958   2.883   6.187   0.761 -0.0097 -0.0944 -0.4431
 4800TIP3    H135959   2.839   6.103   0.764  2.3920 -1.5443 -2.0620
 4800TIP3    H235960   2.890   6.207   0.668  1.8386  0.4908 -0.2306
 4801TIP3   OH235961   4.765   6.021   2.526 -0.5498  0.2790 -0.0972
 4801TIP3    H135962   4.729   6.104   2.556 -2.7632 -0.3102 -0.9157
 4801TIP3    H235963   4.705   5.955   2.561 -0.0248 -0.8076 -1.1785
 4802TIP3   OH235964   3.284   0.813   2.284  0.1324 -0.1919  0.0447
 4802TIP3    H135965   3.230   0.889   2.309  1.5574  0.3953  1.5287
 4802TIP3    H235966   3.220   0.745   2.261 -1.1965  1.6031 -1.9168
 4803TIP3   OH235967   1.543   3.093   3.251 -0.2958 -0.4668  0.1238
 4803TIP3    H135968   1.524   3.179   3.215 -0.7120 -0.2809  0.7778
 4803TIP3    H235969   1.597   3.050   3.184 -1.0458 -0.1310 -0.7069
 4804TIP3   OH235970   5.712   5.889   0.406  0.1846 -0.3053  0.1318
 4804TIP3    H135971   5.686   5.974   0.442  1.9284 -0.7022  2.6214
 4804TIP3    H235972   5.652   5.827   0.448 -0.2201 -0.4461 -0.6425
 4805TIP3   OH235973   3.808   3.235   8.683 -0.3285  0.1786 -0.2917
 4805TIP3    H135974   3.859   3.244   8.603 -0.8622 -1.3811 -0.8365
 4805TIP3    H235975   3.843   3.302   8.741  0.2319  1.1910 -1.7311
 4806TIP3   OH235976   4.083   6.277   1.431 -0.3238 -0.2943 -0.1712
 4806TIP3    H135977   4.049   6.187   1.427  0.7917 -0.7535  0.3601
 4806TIP3    H235978   4.114   6.287   1.521  2.9977 -0.6835 -1.1486
 4807TIP3   OH235979   2.376   1.687   1.257 -0.2201  0.5020  0.2966
 4807TIP3    H135980   2.363   1.737   1.176 -0.1267 -0.8751 -0.5944
 4807TIP3    H235981   2.331   1.739   1.324  0.2948  2.0213 -0.4941
 4808TIP3   OH235982   3.854   2.293   8.595  0.0839 -0.7468 -1.0127
 4808TIP3    H135983   3.764   2.262   8.604  0.0885 -1.5251 -3.1807
 4808TIP3    H235984   3.890   2.244   8.522  1.4007  1.4778 -1.9699
 4809TIP3   OH235985   5.184   0.858   2.992 -0.1226 -0.0911  0.0218
 4809TIP3    H135986   5.132   0.824   3.065 -0.1202 -0.1946 -0.0247
 4809TIP3    H235987   5.270   0.819   3.003 -0.2115 -0.3618 -0.2164
 4810TIP3   OH235988   1.930   6.027   3.039 -0.0757  0.7080  0.1332
 4810TIP3    H135989   1.954   6.047   2.949  1.4870 -1.3231  0.0376
 4810TIP3    H235990   1.989   5.956   3.065 -2.2968 -0.6350  1.8641
 4811TIP3   OH235991   1.453   0.841   0.862  0.0914 -0.6821 -1.1656
 4811TIP3    H135992   1.374   0.845   0.916  1.3475  1.0805  0.6917
 4811TIP3    H235993   1.463   0.748   0.841 -2.2630 -1.0013 -1.1937
 4812TIP3   OH235994   3.305   3.134   8.199 -0.1305  0.1774 -0.0433
 4812TIP3    H135995   3.257   3.083   8.264  0.7989  0.4481  0.8864
 4812TIP3    H235996   3.321   3.218   8.242 -1.0999  1.0570 -1.3212
 4813TIP3   OH235997   0.805   0.807   2.880  0.2856 -0.6056 -0.1815
 4813TIP3    H135998   0.893   0.844   2.871  0.2194 -0.5615 -0.6701
 4813TIP3    H235999   0.758   0.838   2.802 -0.5755  0.4967  0.7444
 4814TIP3   OH236000   6.001   5.295   1.296 -0.0164  0.5408 -0.1101
 4814TIP3    H136001   6.004   5.283   1.390 -0.6905  1.1029 -0.0075
 4814TIP3    H236002   5.916   5.336   1.279  0.7479  1.9553 -0.7821
 4815TIP3   OH236003   2.340   1.891   7.829 -0.0579  0.3151 -0.2570
 4815TIP3    H136004   2.370   1.801   7.823  0.4194  0.5595 -3.7884
 4815TIP3    H236005   2.277   1.900   7.757 -0.3111  2.7270  0.1804
 4816TIP3   OH236006   2.302   1.071   2.285  0.3490 -0.0756  0.0751
 4816TIP3    H136007   2.255   1.097   2.365  0.6724  0.4697  0.0912
 4816TIP3    H236008   2.380   1.027   2.317  0.0632 -0.6022  0.0515
 4817TIP3   OH236009   6.351   2.436   7.981  0.0555  0.4733  0.1863
 4817TIP3    H136010   6.368   2.342   7.970 -0.0491  0.5305 -0.5586
 4817TIP3    H236011   6.360   2.472   7.892 -1.4738  0.9115  0.1857
 4818TIP3   OH236012   2.514   3.907   8.255 -0.0750  0.2492  0.4284
 4818TIP3    H136013   2.564   3.878   8.331  0.3988 -0.5298 -0.1720
 4818TIP3    H236014   2.426   3.923   8.289  0.4380  1.1871  1.4015
 4819TIP3   OH236015   3.799   5.609   3.490  0.3415 -0.4702  0.1334
 4819TIP3    H136016   3.845   5.604   3.574 -1.1887  0.2042  1.0495
 4819TIP3    H236017   3.758   5.695   3.490 -0.8493 -1.0051 -0.6708
 4820TIP3   OH236018   2.026   1.428   1.674  0.3530 -0.0725 -0.2516
 4820TIP3    H136019   2.107   1.439   1.725  0.5961 -0.7468 -0.4825
 4820TIP3    H236020   1.961   1.398   1.737  0.6716 -0.9781 -0.3391
 4821TIP3   OH236021   4.169   6.765   0.052 -0.1484 -0.1261 -0.1036
 4821TIP3    H136022   4.207   6.775   0.139  1.1089 -0.7764 -0.5518
 4821TIP3    H236023   4.123   6.681   0.055  0.9973 -0.7841 -0.4336
 4822TIP3   OH236024   2.824   1.465   2.764  0.3431 -0.7919 -0.3261
 4822TIP3    H136025   2.824   1.560   2.757  0.4883 -0.7650  0.0055
 4822TIP3    H236026   2.733   1.443   2.784  0.2383 -0.7520 -0.7569
 4823TIP3   OH236027   4.469   2.885   0.584  0.3803 -0.2952 -0.2613
 4823TIP3    H136028   4.527   2.961   0.581 -1.4162  1.0914 -0.9140
 4823TIP3    H236029   4.438   2.874   0.494 -1.6653  0.0367  0.3667
 4824TIP3   OH236030   6.478   3.195   7.999 -0.1826 -0.4425 -1.0272
 4824TIP3    H136031   6.536   3.119   8.004  0.2686 -0.0554  0.1220
 4824TIP3    H236032   6.410   3.177   8.064  0.7462  0.7574  0.3505
 4825TIP3   OH236033   2.992   5.525   8.378  0.1994 -0.3444 -0.5200
 4825TIP3    H136034   3.048   5.552   8.306 -0.8650 -1.9196 -2.0027
 4825TIP3    H236035   3.028   5.571   8.454  2.7186 -0.3436 -1.6155
 4826TIP3   OH236036   5.470   1.058   2.198 -0.1396  0.3061 -0.0565
 4826TIP3    H136037   5.508   1.145   2.199 -0.6821  0.6219 -2.1124
 4826TIP3    H236038   5.532   1.004   2.149 -0.3092 -0.2057  0.2782
 4827TIP3   OH236039   4.701   0.133   1.828 -0.1287 -0.1912  0.3360
 4827TIP3    H136040   4.691   0.048   1.787 -1.1977 -0.3068  0.7734
 4827TIP3    H236041   4.628   0.185   1.793 -0.2965  0.1031  1.0964
 4828TIP3   OH236042   3.478   5.945   7.428 -0.4373 -0.2724  0.2073
 4828TIP3    H136043   3.395   5.938   7.475  0.4992  2.9245  2.7284
 4828TIP3    H236044   3.455   5.981   7.342 -1.7706 -1.2756  0.1218
 4829TIP3   OH236045   3.174   2.142   1.758 -0.0897 -0.2204 -0.5664
 4829TIP3    H136046   3.119   2.086   1.704  0.4504 -1.4207  0.0921
 4829TIP3    H236047   3.117   2.170   1.830  0.1984 -1.7660  0.3252
 4830TIP3   OH236048   4.075   4.856   0.460 -0.3204 -0.2253  0.4653
 4830TIP3    H136049   4.128   4.934   0.444 -0.7916  0.4874  2.1321
 4830TIP3    H236050   4.002   4.888   0.514 -1.4056 -1.5333 -0.1531
 4831TIP3   OH236051   4.922   2.843   0.379  0.0801 -0.5813  0.3387
 4831TIP3    H136052   4.871   2.846   0.460 -0.8623  0.9570 -0.2829
 4831TIP3    H236053   4.875   2.781   0.324  1.2919 -2.4422  1.2799
 4832TIP3   OH236054   4.529   6.034   3.560 -0.1227  0.2451  0.2674
 4832TIP3    H136055   4.593   5.975   3.600  0.4521  0.8182  0.2187
 4832TIP3    H236056   4.541   6.117   3.606  0.4365  0.8678 -0.9467
 4833TIP3   OH236057   4.587   6.418   1.487 -0.7177 -0.5731 -0.8602
 4833TIP3    H136058   4.505   6.441   1.531 -0.6938 -0.5299 -0.8379
 4833TIP3    H236059   4.631   6.502   1.474  0.1881 -0.7527  0.8047
 4834TIP3   OH236060   1.069   0.706   3.098 -0.2539  0.1038  0.1579
 4834TIP3    H136061   1.026   0.627   3.131 -1.9486  0.5892 -0.7960
 4834TIP3    H236062   1.127   0.674   3.028 -2.6288 -0.1450 -1.8090
 4835TIP3   OH236063   4.361   6.089   1.914 -0.0629 -0.0224  0.1976
 4835TIP3    H136064   4.420   6.023   1.877  1.4170  0.6771  1.2248
 4835TIP3    H236065   4.330   6.049   1.996  0.3465  0.2928  0.5101
 4836TIP3   OH236066   4.552   2.023   8.545 -0.9337 -0.0798  0.3605
 4836TIP3    H136067   4.621   2.089   8.542  0.4847 -1.4146  1.3442
 4836TIP3    H236068   4.545   2.001   8.638 -0.9220 -1.7103  0.0020
 4837TIP3   OH236069   1.077   0.423   2.415  0.0852  0.1535 -0.2304
 4837TIP3    H136070   1.082   0.336   2.376  0.5874  1.3508 -3.0988
 4837TIP3    H236071   1.156   0.430   2.468  0.4777 -0.8238 -0.6533
 4838TIP3   OH236072   3.227   6.771   8.359 -0.1387 -0.0497 -0.0954
 4838TIP3    H136073   3.222   6.700   8.295  1.9901  0.8188 -1.3019
 4838TIP3    H236074   3.313   6.762   8.399 -0.2758  1.1927  0.5470
 4839TIP3   OH236075   5.326   0.573   3.417  0.4087  0.6308  0.3389
 4839TIP3    H136076   5.301   0.502   3.476  2.0428 -0.5785 -0.3237
 4839TIP3    H236077   5.318   0.652   3.470 -2.2802  0.1052  0.8484
 4840TIP3   OH236078   2.333   3.631   7.008 -0.5919 -0.1516  0.0936
 4840TIP3    H136079   2.283   3.584   7.074 -2.4868 -0.4077 -1.4003
 4840TIP3    H236080   2.353   3.715   7.049 -2.7475  0.1695  0.6560
 4841TIP3   OH236081   6.367   4.755   2.717 -0.0022  0.2779 -0.2689
 4841TIP3    H136082   6.358   4.759   2.812 -1.1064  1.7121 -0.3941
 4841TIP3    H236083   6.441   4.697   2.702 -1.7494 -2.6248  1.3501
 4842TIP3   OH236084   5.123   4.000   8.238 -0.0603 -0.0411 -0.7368
 4842TIP3    H136085   5.174   3.929   8.200 -0.6653  0.0698 -1.8028
 4842TIP3    H236086   5.187   4.057   8.280  0.5103 -0.7620 -0.6197
 4843TIP3   OH236087   0.257   0.023   8.558  0.1952 -0.2467 -0.0755
 4843TIP3    H136088   0.252   0.078   8.636 -1.6001  0.8267 -0.8740
 4843TIP3    H236089   0.339   0.049   8.516 -0.1984  1.2590  0.0109
 4844TIP3   OH236090   1.348   6.608   0.273 -0.5551 -0.0180 -0.0832
 4844TIP3    H136091   1.414   6.638   0.210  0.1560  1.3631  1.2412
 4844TIP3    H236092   1.292   6.550   0.223 -0.2014  1.2574 -2.0863
 4845TIP3   OH236093   3.702   1.376   2.629  0.3059  0.6736  0.2258
 4845TIP3    H136094   3.646   1.328   2.691 -0.2190  1.1359  0.1190
 4845TIP3    H236095   3.783   1.390   2.676  0.5620 -0.5299  0.1752
 4846TIP3   OH236096   4.419   2.750   3.335 -0.2622 -0.9940  0.2109
 4846TIP3    H136097   4.455   2.792   3.257  1.8330  0.4841  1.8677
 4846TIP3    H236098   4.436   2.657   3.321  0.3824 -0.7266 -0.9496
 4847TIP3   OH236099   1.702   3.369   7.998 -0.4459  0.6552 -0.0065
 4847TIP3    H136100   1.635   3.386   7.932 -1.6460  1.4884  1.3635
 4847TIP3    H236101   1.682   3.281   8.030  0.8403 -0.2199 -1.5064
 4848TIP3   OH236102   4.499   3.123   2.936 -0.1383 -0.0273  0.1459
 4848TIP3    H136103   4.406   3.120   2.959 -0.1144 -0.1424  0.2285
 4848TIP3    H236104   4.540   3.064   2.999  0.0701  0.4857  0.5015
 4849TIP3   OH236105   2.631   1.838   3.681 -0.0691 -0.4135  0.3743
 4849TIP3    H136106   2.596   1.792   3.605  0.6040 -0.6482  0.2049
 4849TIP3    H236107   2.723   1.854   3.659  0.1270 -0.4797  1.1385
 4850TIP3   OH236108   3.869   0.673   2.817  0.0796 -0.4345 -0.3656
 4850TIP3    H136109   3.857   0.579   2.827  3.9589 -1.0613 -0.0406
 4850TIP3    H236110   3.810   0.697   2.745 -2.0336 -2.7662  0.4536
 4851TIP3   OH236111   1.991   4.910   2.015 -0.3072 -0.1397  0.2741
 4851TIP3    H136112   2.036   4.988   2.047 -1.2094 -0.0336  1.3628
 4851TIP3    H236113   2.028   4.838   2.066  0.4543 -0.4328 -0.6602
 4852TIP3   OH236114   5.893   0.631   7.586  0.0988  0.3493  0.1655
 4852TIP3    H136115   5.969   0.575   7.573  1.1447  1.4029  1.3715
 4852TIP3    H236116   5.847   0.630   7.503  0.8785 -1.1172 -0.2803
 4853TIP3   OH236117   4.006   0.798   8.283 -0.2244 -0.5255 -0.6501
 4853TIP3    H136118   4.096   0.818   8.257  0.4527  2.2191  3.0067
 4853TIP3    H236119   4.015   0.741   8.360 -1.5949 -0.4225 -0.3822
 4854TIP3   OH236120   4.797   1.888   1.676 -0.7868 -0.4381 -0.4016
 4854TIP3    H136121   4.849   1.908   1.598  0.0894 -0.3527  0.1889
 4854TIP3    H236122   4.837   1.808   1.711  0.2589  0.7175  1.1648
 4855TIP3   OH236123   5.783   5.126   0.503 -0.0963  0.1470  0.0949
 4855TIP3    H136124   5.692   5.099   0.506  0.3527 -1.6353 -0.7484
 4855TIP3    H236125   5.808   5.115   0.411  0.3714  2.7834 -0.1537
 4856TIP3   OH236126   5.407   0.452   1.907 -0.1646  0.0084 -0.6028
 4856TIP3    H136127   5.311   0.447   1.915 -0.2033  1.5988  0.4376
 4856TIP3    H236128   5.421   0.526   1.848  0.4327 -0.9177 -1.6498
 4857TIP3   OH236129   2.144   2.340   0.323 -0.0084 -0.0805 -0.2949
 4857TIP3    H136130   2.204   2.275   0.359  1.0249  1.1627  0.2865
 4857TIP3    H236131   2.186   2.370   0.242 -0.0874  0.4369 -0.1473
 4858TIP3   OH236132   1.356   1.497   0.348 -0.2935  0.3650 -0.2187
 4858TIP3    H136133   1.441   1.519   0.310 -0.5113 -0.4384 -1.2210
 4858TIP3    H236134   1.318   1.434   0.286 -1.5711  0.6387  0.2623
 4859TIP3   OH236135   4.287   5.176   0.998 -0.3298 -0.4184  0.0238
 4859TIP3    H136136   4.341   5.114   1.048 -0.0742 -0.7821 -0.6859
 4859TIP3    H236137   4.242   5.228   1.065 -0.9940 -1.7403  0.6444
 4860TIP3   OH236138   4.933   5.731   0.697  0.1860 -0.3124 -0.3764
 4860TIP3    H136139   4.945   5.825   0.683 -0.8500 -0.0455  0.3994
 4860TIP3    H236140   4.924   5.695   0.609 -2.4212  0.7790 -0.6401
 4861TIP3   OH236141   1.379   1.550   8.200 -0.4047 -0.0284  0.1643
 4861TIP3    H136142   1.360   1.572   8.109  0.4119 -0.9517 -0.2527
 4861TIP3    H236143   1.326   1.472   8.217  0.8657 -1.0077 -0.1604
 4862TIP3   OH236144   4.736   0.904   7.816  0.3245  0.6441  0.4509
 4862TIP3    H136145   4.724   0.895   7.721 -0.7314  0.0802  0.6208
 4862TIP3    H236146   4.821   0.946   7.826 -0.8332  3.5829 -0.8681
 4863TIP3   OH236147   2.508   0.052   8.833  0.2413  0.0146  0.3730
 4863TIP3    H136148   2.561   0.116   8.786 -1.1672  1.4349  0.6562
 4863TIP3    H236149   2.570   0.008   8.892  1.2724  0.9415  0.0048
 4864TIP3   OH236150   1.958   4.657   0.649  0.0832  0.4266  0.6213
 4864TIP3    H136151   2.026   4.710   0.607  2.1943 -0.9436  2.0827
 4864TIP3    H236152   1.967   4.676   0.742 -0.6698 -0.7462  0.9541
 4865TIP3   OH236153   6.643   6.579   1.221 -0.1951 -0.0523  0.1421
 4865TIP3    H136154   6.713   6.564   1.158 -0.0155 -1.7254  0.6727
 4865TIP3    H236155   6.664   6.663   1.262  1.8470 -0.7653  0.6870
 4866TIP3   OH236156   2.266   3.122   1.727 -0.2058 -0.2238  0.3435
 4866TIP3    H136157   2.249   3.031   1.706  0.5751 -0.2210 -0.3535
 4866TIP3    H236158   2.336   3.148   1.667  0.5408  0.4392  1.4600
 4867TIP3   OH236159   5.815   1.090   1.355  0.5080 -0.3519 -0.4039
 4867TIP3    H136160   5.741   1.083   1.415 -0.5588  0.2597 -1.6200
 4867TIP3    H236161   5.778   1.127   1.275  2.6815  3.0206 -0.0395
 4868TIP3   OH236162   2.390   1.508   7.371  0.1871 -0.0237  0.0747
 4868TIP3    H136163   2.340   1.433   7.342  0.2329 -0.9507  2.2078
 4868TIP3    H236164   2.356   1.528   7.458  1.7732  0.9114  0.5325
 4869TIP3   OH236165   5.454   5.591   1.974  0.3387  0.7638  0.3137
 4869TIP3    H136166   5.431   5.647   1.899 -1.5261 -0.2350  0.0945
 4869TIP3    H236167   5.425   5.641   2.050 -0.3376  0.5682  0.1873
 4870TIP3   OH236168   6.672   1.140   0.970 -0.8668  0.2024  0.5886
 4870TIP3    H136169   6.658   1.173   1.058 -1.8501  0.8105  0.2213
 4870TIP3    H236170   6.590   1.157   0.924 -0.6020 -0.6970 -0.2632
 4871TIP3   OH236171   3.032   5.760   0.859  0.3505 -0.3985  0.2763
 4871TIP3    H136172   3.001   5.670   0.865 -2.6582  0.4803 -0.0454
 4871TIP3    H236173   3.030   5.780   0.765 -1.1270  0.5744  0.4698
 4872TIP3   OH236174   1.855   1.915   7.242 -0.6660 -0.0984  0.5115
 4872TIP3    H136175   1.817   1.994   7.203  1.2308  0.2531 -0.7879
 4872TIP3    H236176   1.805   1.843   7.202 -0.2422  0.3477 -0.9020
 4873TIP3   OH236177   3.531   5.895   8.674 -0.9692 -0.4229  0.3572
 4873TIP3    H136178   3.549   5.984   8.707 -1.2257 -0.1760 -0.1582
 4873TIP3    H236179   3.614   5.849   8.684 -1.0816 -0.4141  1.5178
 4874TIP3   OH236180   0.297   1.063   2.336  0.4447  0.2290 -0.7787
 4874TIP3    H136181   0.281   1.036   2.427  2.5771 -2.1104 -0.9779
 4874TIP3    H236182   0.381   1.109   2.340  1.0693 -0.7856 -1.6579
 4875TIP3   OH236183   2.570   2.866   7.381 -0.0003 -0.0019 -0.2704
 4875TIP3    H136184   2.482   2.905   7.374  0.6304  1.4296 -0.5325
 4875TIP3    H236185   2.557   2.790   7.439 -1.3215  0.4691  0.1047
 4876TIP3   OH236186   2.422   2.565   2.222  0.4311  0.2378 -0.5360
 4876TIP3    H136187   2.488   2.503   2.254  0.0032 -0.0988 -0.3010
 4876TIP3    H236188   2.468   2.649   2.220  0.6046  0.1858  0.5486
 4877TIP3   OH236189   2.560   5.110   1.659  0.3251 -0.2732  0.0741
 4877TIP3    H136190   2.618   5.183   1.680  1.6483 -1.2096 -0.2318
 4877TIP3    H236191   2.476   5.152   1.638  0.6622  1.0639  1.2025
 4878TIP3   OH236192   3.097   1.906   0.292  0.3077 -0.3457 -0.1111
 4878TIP3    H136193   3.188   1.927   0.313  0.1397  1.5751 -1.1116
 4878TIP3    H236194   3.050   1.918   0.375  0.6895  0.4669 -0.0059
 4879TIP3   OH236195   4.205   6.103   0.027  0.0874  0.1356  0.5741
 4879TIP3    H136196   4.297   6.077   0.027  0.1874  0.4000 -0.9235
 4879TIP3    H236197   4.206   6.194  -0.004 -0.6027  0.5032  1.5918
 4880TIP3   OH236198   1.576   1.411   8.700  0.6861  0.2935  0.2550
 4880TIP3    H136199   1.491   1.386   8.664  0.8061 -0.4404  0.4596
 4880TIP3    H236200   1.630   1.332   8.692  2.3215  1.5773 -2.6392
 4881TIP3   OH236201   1.967   1.819   8.253 -0.4670 -1.4491  0.2942
 4881TIP3    H136202   2.037   1.862   8.302 -0.5468  0.7099 -1.2883
 4881TIP3    H236203   2.011   1.750   8.203  0.3144 -0.9675  0.3010
 4882TIP3   OH236204   1.160   5.237   8.083  0.2266  0.0938  0.1178
 4882TIP3    H136205   1.224   5.303   8.058  0.2527 -0.5704 -1.7399
 4882TIP3    H236206   1.104   5.228   8.006  0.4317 -2.2505  0.1669
 4883TIP3   OH236207   5.102   5.191   2.179 -0.5174 -0.0961 -0.7749
 4883TIP3    H136208   5.036   5.122   2.179 -1.4975  0.7650  0.5410
 4883TIP3    H236209   5.139   5.188   2.268  0.6749 -0.0460 -1.2495
 4884TIP3   OH236210   4.318   5.510   7.939  0.2220 -0.2649  0.1665
 4884TIP3    H136211   4.336   5.529   7.847  1.8769  2.0730  0.8468
 4884TIP3    H236212   4.405   5.510   7.980 -0.4400 -1.7307  1.6646
 4885TIP3   OH236213   6.146   4.024   0.671 -0.1720  0.1822 -0.3565
 4885TIP3    H136214   6.069   3.971   0.689  0.2995 -0.7413 -0.9242
 4885TIP3    H236215   6.219   3.973   0.707  0.0479  1.9646  2.0084
 4886TIP3   OH236216   6.320   2.527   2.160  0.7105  0.3743  0.4560
 4886TIP3    H136217   6.357   2.463   2.100  1.0660  0.2420  0.8101
 4886TIP3    H236218   6.396   2.568   2.201  0.4701 -0.5418  1.8728
 4887TIP3   OH236219   0.797   5.829   8.699 -0.1453 -0.2437  0.2669
 4887TIP3    H136220   0.799   5.734   8.700  1.1640 -0.2605 -0.9646
 4887TIP3    H236221   0.723   5.852   8.755 -0.5149 -1.9730  0.5401
 4888TIP3   OH236222   6.606   0.435   1.833  0.4308 -0.2788 -0.6187
 4888TIP3    H136223   6.632   0.485   1.756  0.4862 -0.4274 -0.6979
 4888TIP3    H236224   6.524   0.392   1.808 -1.1565  1.9911  0.4018
 4889TIP3   OH236225   6.386   1.654   8.835  0.4402 -0.7146  0.0417
 4889TIP3    H136226   6.401   1.671   8.742 -0.2462 -0.1466  0.0266
 4889TIP3    H236227   6.459   1.697   8.879  1.0198 -1.3740 -0.2510
 4890TIP3   OH236228   5.561   1.412   8.468  0.3062 -0.2319  0.5099
 4890TIP3    H136229   5.580   1.355   8.394  0.2968  0.5976 -0.1465
 4890TIP3    H236230   5.646   1.453   8.489  0.3585 -0.6512  1.1143
 4891TIP3   OH236231   3.812   1.700   2.553  0.0896  0.0157  0.3805
 4891TIP3    H136232   3.751   1.638   2.513 -1.0856  0.9922  0.6332
 4891TIP3    H236233   3.826   1.767   2.487  1.1915 -0.3780  0.1918
 4892TIP3   OH236234   5.641   6.029   1.481  0.1991  0.7176  0.3358
 4892TIP3    H136235   5.608   6.079   1.406 -1.0668  0.7449  0.8928
 4892TIP3    H236236   5.690   6.093   1.532 -2.0623  1.6740  1.4567
 4893TIP3   OH236237   1.849   6.158   1.765 -0.1768 -0.2971 -0.5382
 4893TIP3    H136238   1.923   6.146   1.706 -0.1153  0.6362 -0.6622
 4893TIP3    H236239   1.772   6.130   1.715 -0.0462 -0.1268 -0.8334
 4894TIP3   OH236240   6.301   6.207   2.835  0.3303 -0.2548 -0.1607
 4894TIP3    H136241   6.296   6.212   2.931  0.2408  2.3594 -0.2090
 4894TIP3    H236242   6.210   6.202   2.807  0.0682  2.5899 -0.1069
 4895TIP3   OH236243   6.480   2.016   1.957 -0.1689 -0.2897 -0.1416
 4895TIP3    H136244   6.567   2.029   1.920 -0.3279 -0.7488 -0.6847
 4895TIP3    H236245   6.439   1.951   1.900  0.0822 -2.0920  1.6117
 4896TIP3   OH236246   1.512   1.222   2.334  0.0927  0.0321  0.0824
 4896TIP3    H136247   1.460   1.212   2.414 -0.5985  1.1892 -0.1948
 4896TIP3    H236248   1.447   1.235   2.265  0.7208  0.1862 -0.4824
 4897TIP3   OH236249   3.887   5.240   2.437 -0.3996  0.6551 -0.7468
 4897TIP3    H136250   3.868   5.284   2.520  0.9333 -0.4498  0.2015
 4897TIP3    H236251   3.848   5.153   2.446  2.1588 -0.5189 -0.0241
 4898TIP3   OH236252   0.854   3.768   1.045  0.3498 -0.0595  0.0395
 4898TIP3    H136253   0.935   3.729   1.077  1.4208  3.7957  2.6970
 4898TIP3    H236254   0.882   3.825   0.973 -0.7375 -1.6281 -1.7368
 4899TIP3   OH236255   1.701   4.280   8.810  0.5076 -0.4716 -0.0088
 4899TIP3    H136256   1.679   4.202   8.861  0.9273 -2.1076 -2.2099
 4899TIP3    H236257   1.622   4.335   8.816  0.1941 -1.0458  1.5501
 4900TIP3   OH236258   6.733   5.707   0.002  0.5455  0.0047 -0.3365
 4900TIP3    H136259   6.787   5.632  -0.025  0.4168 -0.5961  0.9547
 4900TIP3    H236260   6.667   5.668   0.060  0.1520  1.0553 -0.0628
 4901TIP3   OH236261   3.788   3.564   0.674 -0.3508  0.0548 -0.6040
 4901TIP3    H136262   3.741   3.555   0.591  1.2333 -0.1852 -1.5015
 4901TIP3    H236263   3.720   3.591   0.736 -1.4451  0.9759 -2.1186
 4902TIP3   OH236264   4.406   2.690   7.994  0.3969  0.3771 -0.0078
 4902TIP3    H136265   4.442   2.742   8.066  1.6472  0.8415 -0.9348
 4902TIP3    H236266   4.400   2.751   7.920 -0.1135 -0.2852 -0.5313
 4903TIP3   OH236267   6.288   4.304   2.009  0.2493  1.1233 -0.3729
 4903TIP3    H136268   6.343   4.273   1.936 -2.1582  0.2724 -1.9550
 4903TIP3    H236269   6.267   4.224   2.058  1.9245  1.6998  1.4133
 4904TIP3   OH236270   0.770   4.792   1.407  0.0824 -0.6709 -0.2464
 4904TIP3    H136271   0.806   4.880   1.396  0.9054 -0.6375  2.0867
 4904TIP3    H236272   0.812   4.740   1.338  2.6942 -0.0498  0.7506
 4905TIP3   OH236273   2.681   3.941   7.259 -0.8483 -0.7612 -0.8276
 4905TIP3    H136274   2.723   3.864   7.297 -0.4541 -0.5465 -0.8183
 4905TIP3    H236275   2.731   4.015   7.295 -0.6720 -0.5434 -1.5113
 4906TIP3   OH236276   0.610   6.608   7.910  0.2066  0.5848 -0.4035
 4906TIP3    H136277   0.658   6.526   7.897  0.2771  0.3896  0.9682
 4906TIP3    H236278   0.613   6.623   8.005 -1.8049  0.9594 -0.3618
 4907TIP3   OH236279   1.914   3.154   3.320 -0.3583  0.2733 -0.5910
 4907TIP3    H136280   1.998   3.154   3.365 -1.1146  0.3171  0.8586
 4907TIP3    H236281   1.920   3.079   3.260 -0.3715 -1.6722  1.6644
 4908TIP3   OH236282   0.477   5.665   8.278  0.1063 -0.5536 -0.0823
 4908TIP3    H136283   0.505   5.751   8.248 -0.1294 -0.1802  0.7423
 4908TIP3    H236284   0.554   5.627   8.319  0.0466 -0.4808  0.0999
 4909TIP3   OH236285   3.186   4.883   2.339  0.1404  0.2219 -0.3691
 4909TIP3    H136286   3.136   4.804   2.359  3.0425 -1.4898  0.8444
 4909TIP3    H236287   3.141   4.953   2.387 -1.5887 -0.9970 -0.1236
 4910TIP3   OH236288   0.504   4.152   1.598 -0.1725  0.1996 -0.0118
 4910TIP3    H136289   0.479   4.113   1.514  0.7862  0.5624 -0.4853
 4910TIP3    H236290   0.578   4.209   1.576 -1.5055  2.3216  0.6285
 4911TIP3   OH236291   2.614   0.629   8.613 -0.1413 -0.0936 -0.8651
 4911TIP3    H136292   2.548   0.569   8.647 -0.2380  1.3552  1.8164
 4911TIP3    H236293   2.569   0.714   8.610  1.2715  0.7206  0.0483
 4912TIP3   OH236294   4.402   6.325   2.883  0.2508  0.3293 -0.2682
 4912TIP3    H136295   4.364   6.391   2.826 -0.5407  0.8404  0.8001
 4912TIP3    H236296   4.367   6.345   2.970  3.2916  1.1170  0.9315
 4913TIP3   OH236297   0.780   3.473   0.273  0.2737  0.0519  0.1832
 4913TIP3    H136298   0.740   3.539   0.329 -1.0838  0.7626 -1.5278
 4913TIP3    H236299   0.771   3.508   0.184  0.6974 -1.8441 -0.6623
 4914TIP3   OH236300   3.843   3.261   3.594  0.5049 -0.2078  0.2201
 4914TIP3    H136301   3.886   3.207   3.528  0.7175 -1.8681  1.6224
 4914TIP3    H236302   3.784   3.201   3.639 -2.0142  1.5823 -0.4541
 4915TIP3   OH236303   1.166   6.600   7.372  0.3043 -0.0895 -0.4567
 4915TIP3    H136304   1.227   6.580   7.300 -1.5660 -1.0487 -1.8570
 4915TIP3    H236305   1.156   6.518   7.419 -0.5696 -0.1837 -0.7860
 4916TIP3   OH236306   5.497   0.616   2.453 -0.0539 -0.0489 -0.0365
 4916TIP3    H136307   5.492   0.710   2.434  0.9593 -0.2278 -1.3402
 4916TIP3    H236308   5.566   0.608   2.519 -1.1358  0.2412  1.1580
 4917TIP3   OH236309   2.546   1.407   2.604 -0.1085 -0.1366  0.0762
 4917TIP3    H136310   2.596   1.369   2.532  0.2007  0.2591  0.0808
 4917TIP3    H236311   2.481   1.340   2.626 -1.9659  0.7408 -2.3137
 4918TIP3   OH236312   2.576   4.839   2.413 -0.3560 -0.3183 -0.3771
 4918TIP3    H136313   2.596   4.751   2.446 -0.6830 -0.1797  0.2118
 4918TIP3    H236314   2.493   4.861   2.454 -0.8136 -0.1561 -1.3596
 4919TIP3   OH236315   5.096   2.781   7.286 -0.2056  0.0787  0.1538
 4919TIP3    H136316   5.030   2.836   7.330  0.1976  0.4164  0.3380
 4919TIP3    H236317   5.177   2.800   7.332  0.0568 -0.2008 -0.1956
 4920TIP3   OH236318   3.476   2.947   0.581 -0.0648  0.0189 -0.3670
 4920TIP3    H136319   3.504   3.036   0.603  1.3970 -0.5366  0.1264
 4920TIP3    H236320   3.416   2.923   0.652 -1.8259  1.1777 -1.3769
 4921TIP3   OH236321   0.434   1.780   1.042  0.1470 -0.4855  0.2652
 4921TIP3    H136322   0.360   1.719   1.043  0.3717 -0.7614  0.1030
 4921TIP3    H236323   0.507   1.731   1.079  0.2587 -0.2203  0.4037
 4922TIP3   OH236324   2.526   5.257   1.340 -0.5343  0.1614 -0.3402
 4922TIP3    H136325   2.456   5.238   1.402  0.2570  0.9181  0.8168
 4922TIP3    H236326   2.584   5.318   1.386  0.4344  0.2269 -1.5791
 4923TIP3   OH236327   3.814   5.003   2.600 -0.0003  0.2076  0.4500
 4923TIP3    H136328   3.864   4.922   2.613 -1.7284 -1.5221 -2.5531
 4923TIP3    H236329   3.725   4.980   2.625 -0.2633  1.7033  0.9836
 4924TIP3   OH236330   6.066   4.283   7.296  0.3991  0.0237  0.3212
 4924TIP3    H136331   6.084   4.258   7.387  0.6115 -1.1994 -0.0400
 4924TIP3    H236332   5.971   4.277   7.288  0.3823  0.1044  0.4493
 4925TIP3   OH236333   6.312   2.074   2.183  0.2790 -0.5172  0.0727
 4925TIP3    H136334   6.396   2.120   2.178 -0.4909  0.8505 -1.2853
 4925TIP3    H236335   6.333   1.983   2.164  1.3686 -0.0464 -1.1345
 4926TIP3   OH236336   1.876   6.545   7.422 -0.4906  0.4395 -0.5676
 4926TIP3    H136337   1.844   6.635   7.417 -1.6382  0.1037  0.3508
 4926TIP3    H236338   1.967   6.551   7.392 -0.6555  1.8380 -0.8788
 4927TIP3   OH236339   3.271   5.880   0.966  0.3121 -0.2711 -0.3801
 4927TIP3    H136340   3.191   5.847   0.925  0.5278 -0.2427 -0.8364
 4927TIP3    H236341   3.330   5.897   0.892  0.1429  1.3435 -0.1705
 4928TIP3   OH236342   2.699   1.264   1.165 -0.2115 -0.0776  0.4452
 4928TIP3    H136343   2.642   1.196   1.200 -1.2246  1.0737  1.1254
 4928TIP3    H236344   2.742   1.224   1.089 -1.7523 -1.0454  0.0491
 4929TIP3   OH236345   4.603   1.011   1.004  0.0485 -0.1100  0.2373
 4929TIP3    H136346   4.543   0.978   1.071  2.0074  0.0360  2.1841
 4929TIP3    H236347   4.603   0.944   0.936 -0.2105 -1.4470  1.5123
 4930TIP3   OH236348   2.819   4.799   0.048 -0.6428 -0.1878  0.7014
 4930TIP3    H136349   2.730   4.767   0.033 -0.7186 -1.1819  2.9674
 4930TIP3    H236350   2.875   4.736   0.002 -1.0326 -0.2972  0.3648
 4931TIP3   OH236351   6.610   1.022   2.852 -0.2671 -0.4338  0.2100
 4931TIP3    H136352   6.668   0.990   2.783  0.8998  0.8412  0.5358
 4931TIP3    H236353   6.641   0.978   2.931  0.3541  0.3251  0.4019
 4932TIP3   OH236354   6.663   3.811   8.249  0.2689 -0.2177 -0.3923
 4932TIP3    H136355   6.587   3.814   8.307  0.9477 -1.0461  0.5674
 4932TIP3    H236356   6.674   3.719   8.228 -0.5796  0.1519 -2.7191
 4933TIP3   OH236357   2.955   4.160   7.848  0.0610 -0.6969 -0.0852
 4933TIP3    H136358   2.935   4.082   7.797  0.3068 -1.0195  0.3148
 4933TIP3    H236359   2.928   4.233   7.791  0.9960 -1.0285 -0.9829
 4934TIP3   OH236360   0.934   0.595   7.329 -0.1491  0.6311 -0.1891
 4934TIP3    H136361   0.980   0.558   7.253  0.8332  0.6698  0.3727
 4934TIP3    H236362   0.969   0.684   7.337 -0.3406  0.6686  0.2287
 4935TIP3   OH236363   2.261   5.337   2.494  0.9986  0.6269  0.2445
 4935TIP3    H136364   2.277   5.243   2.492  2.6203  0.8424 -2.4783
 4935TIP3    H236365   2.236   5.360   2.404 -0.2491  2.6857  1.0333
 4936TIP3   OH236366   1.917   2.894   2.727 -0.7648  0.2829 -0.3429
 4936TIP3    H136367   1.847   2.924   2.784  1.1891  0.8373  1.9177
 4936TIP3    H236368   1.928   2.802   2.749  0.0881  0.5331  0.3543
 4937TIP3   OH236369   2.424   2.159   1.128  0.2899 -0.3318  0.4639
 4937TIP3    H136370   2.505   2.163   1.178  0.1012 -0.2337  0.7621
 4937TIP3    H236371   2.360   2.124   1.189  0.4204 -1.7655 -0.1861
 4938TIP3   OH236372   2.176   4.948   0.087 -0.2007 -0.2061 -0.6743
 4938TIP3    H136373   2.180   5.030   0.038  0.1118 -1.1844 -2.3642
 4938TIP3    H236374   2.091   4.910   0.063 -1.3850  0.6171  1.8690
 4939TIP3   OH236375   3.286   2.048   8.457 -0.0921 -0.2426 -0.4463
 4939TIP3    H136376   3.207   2.053   8.402 -0.8655 -1.0904  0.5310
 4939TIP3    H236377   3.320   2.138   8.458 -1.4108  0.2795 -0.3722
 4940TIP3   OH236378   5.300   3.500   1.871  0.0651  0.0588  0.0557
 4940TIP3    H136379   5.278   3.486   1.779 -0.5750  1.5938 -0.0642
 4940TIP3    H236380   5.353   3.580   1.871  0.7589 -0.3762  0.9535
 4941TIP3   OH236381   0.430   3.054   0.196 -0.3060  0.7174  0.2281
 4941TIP3    H136382   0.477   3.137   0.199 -0.2389  0.6664  1.3119
 4941TIP3    H236383   0.349   3.072   0.149 -0.0301  1.2506 -0.0458
 4942TIP3   OH236384   5.241   1.295   1.245  0.2296  0.3508  0.1258
 4942TIP3    H136385   5.272   1.385   1.249  3.3685 -0.5836 -0.6188
 4942TIP3    H236386   5.168   1.297   1.183  0.6147  2.2781 -0.3153
 4943TIP3   OH236387   4.736   1.379   8.587 -0.0200 -0.0932  0.3899
 4943TIP3    H136388   4.735   1.463   8.633 -3.1261 -0.9657  2.1765
 4943TIP3    H236389   4.650   1.373   8.546  0.7566 -1.7199 -1.1391
 4944TIP3   OH236390   1.859   0.353   0.924 -0.3752  0.2686  0.6012
 4944TIP3    H136391   1.908   0.435   0.925 -0.6473  0.4285  0.9156
 4944TIP3    H236392   1.770   0.378   0.898 -0.7264  0.2291  1.7314
 4945TIP3   OH236393   1.107   1.541   0.172 -0.7423 -0.6432 -0.1017
 4945TIP3    H136394   1.041   1.596   0.128 -1.2463 -0.5767  0.7294
 4945TIP3    H236395   1.105   1.459   0.123  0.4449  0.2420 -1.7500
 4946TIP3   OH236396   3.553   5.115   0.593 -0.3063  0.0182  0.2256
 4946TIP3    H136397   3.604   5.189   0.627  2.7543 -1.3193 -1.0161
 4946TIP3    H236398   3.549   5.054   0.666 -1.0268  0.5217  0.6224
 4947TIP3   OH236399   6.453   2.365   2.765  0.0734 -0.4001 -0.4339
 4947TIP3    H136400   6.521   2.303   2.790 -0.6949 -0.6349  1.2173
 4947TIP3    H236401   6.417   2.396   2.848 -1.1398  0.5011 -1.2530
 4948TIP3   OH236402   5.346   2.099   0.570 -0.6903  0.1446  0.0355
 4948TIP3    H136403   5.311   2.186   0.552 -0.1852  0.0514 -1.5767
 4948TIP3    H236404   5.275   2.039   0.549 -0.0077  0.0186 -2.1483
 4949TIP3   OH236405   4.035   2.682   1.222 -0.0748  0.0888  0.5258
 4949TIP3    H136406   4.092   2.670   1.146 -2.1210 -0.2569 -1.0360
 4949TIP3    H236407   4.042   2.600   1.270  1.3980  0.3847  0.8678
 4950TIP3   OH236408   1.004   5.235   0.034 -0.4024  0.1381 -0.3050
 4950TIP3    H136409   1.001   5.310  -0.026 -0.3469 -0.9885 -1.7615
 4950TIP3    H236410   1.070   5.177  -0.003  0.8516  0.1417  1.7880
 4951TIP3   OH236411   6.429   5.426   2.433 -0.8173  0.0346  0.5975
 4951TIP3    H136412   6.446   5.424   2.339 -0.5330 -0.8443  0.6639
 4951TIP3    H236413   6.430   5.335   2.460  0.9579  0.3456  1.7837
 4952TIP3   OH236414   0.801   4.632   1.643  0.4825  0.0172 -0.6898
 4952TIP3    H136415   0.778   4.688   1.569 -1.1482  1.1999  0.6358
 4952TIP3    H236416   0.858   4.686   1.697 -2.0020  0.9817  1.1755
 4953TIP3   OH236417   1.316   3.926   0.100 -0.8385  0.3719 -0.0457
 4953TIP3    H136418   1.326   3.957   0.190 -0.9579  0.6595 -0.1298
 4953TIP3    H236419   1.240   3.974   0.067 -0.3620  0.8131 -0.5329
 4954TIP3   OH236420   0.037   6.412   2.424 -0.0996  0.6204 -0.4056
 4954TIP3    H136421   0.022   6.317   2.431 -5.2114  1.1531 -0.9297
 4954TIP3    H236422   0.071   6.437   2.509  1.5934 -1.6043 -0.3066
 4955TIP3   OH236423   5.388   5.900   1.526 -0.3945 -0.0086  0.2070
 4955TIP3    H136424   5.343   5.882   1.443  0.0504 -0.2957  0.0214
 4955TIP3    H236425   5.480   5.912   1.501 -0.5864  2.2473  0.3555
 4956TIP3   OH236426   2.683   3.733   2.656  0.1312  0.3087  0.0023
 4956TIP3    H136427   2.634   3.792   2.712  2.8354  0.5699  2.3067
 4956TIP3    H236428   2.683   3.775   2.570 -0.4645  2.1762  0.8819
 4957TIP3   OH236429   1.150   6.531   1.067  0.0311  0.3386 -0.4920
 4957TIP3    H136430   1.134   6.463   1.132  0.8604  0.1298 -0.5005
 4957TIP3    H236431   1.244   6.527   1.049  0.2774  2.0520  0.1589
 4958TIP3   OH236432   3.532   5.163   3.506  0.6366 -0.4159 -0.3592
 4958TIP3    H136433   3.613   5.211   3.524 -0.2335  0.6757  0.8692
 4958TIP3    H236434   3.462   5.224   3.530 -0.6557 -0.4641 -3.4297
 4959TIP3   OH236435   6.141   3.908   8.251  0.2063 -0.0050 -0.1632
 4959TIP3    H136436   6.067   3.968   8.261 -1.8808 -2.4332 -0.0869
 4959TIP3    H236437   6.167   3.917   8.160 -3.4449 -2.4555 -1.6795
 4960TIP3   OH236438   0.610   6.095   1.142  0.2608 -0.1858 -0.0235
 4960TIP3    H136439   0.635   6.013   1.099 -1.6364 -0.5398 -0.5370
 4960TIP3    H236440   0.603   6.158   1.071 -1.1306 -0.3259 -0.0347
 4961TIP3   OH236441   6.544   6.040   2.754  0.0266  0.1914  0.0747
 4961TIP3    H136442   6.470   6.045   2.815  0.1566  1.7557  0.1392
 4961TIP3    H236443   6.506   6.058   2.668 -0.1006 -1.6900 -0.3041
 4962TIP3   OH236444   4.010   1.457   2.112 -0.7238  0.2355 -0.0618
 4962TIP3    H136445   3.918   1.452   2.086 -0.4739  0.8405 -1.1371
 4962TIP3    H236446   4.008   1.484   2.204 -1.6273  0.5829 -0.1758
 4963TIP3   OH236447   1.677   1.077   0.143 -0.3157  0.5356  0.0480
 4963TIP3    H136448   1.722   1.120   0.215  1.8710 -0.8197 -0.4072
 4963TIP3    H236449   1.584   1.095   0.158  0.2181  1.8513  2.1220
 4964TIP3   OH236450   6.296   4.707   2.467 -0.2686  0.3678 -0.6319
 4964TIP3    H136451   6.293   4.710   2.563  1.4273  1.3046 -0.5711
 4964TIP3    H236452   6.233   4.773   2.438 -0.6584  0.2057 -0.1690
 4965TIP3   OH236453   5.047   5.281   7.308  0.6123 -0.3945  0.1835
 4965TIP3    H136454   5.082   5.290   7.397  1.6034  0.7009 -0.2922
 4965TIP3    H236455   5.002   5.363   7.291  0.9361 -0.3539 -0.5279
 4966TIP3   OH236456   6.641   6.146   1.957  0.6296 -0.1096  0.2723
 4966TIP3    H136457   6.649   6.221   2.015  0.1441 -0.3208  0.6181
 4966TIP3    H236458   6.652   6.183   1.869 -0.1833  0.4606  0.4000
 4967TIP3   OH236459   5.952   4.688   1.148  0.3047  0.7453 -0.6015
 4967TIP3    H136460   5.914   4.657   1.065 -1.1310 -1.9336  0.9223
 4967TIP3    H236461   5.884   4.745   1.185  0.1545  0.4518 -0.4250
 4968TIP3   OH236462   1.036   5.223   0.312 -0.7015  0.1104 -0.2071
 4968TIP3    H136463   1.014   5.254   0.224 -0.0749  2.6028  0.4458
 4968TIP3    H236464   1.062   5.302   0.359  0.3723 -1.3753  1.8096
 4969TIP3   OH236465   4.668   1.027   8.919 -0.2560 -0.0076 -0.1101
 4969TIP3    H136466   4.744   0.991   8.873 -0.1966 -0.1919  0.1301
 4969TIP3    H236467   4.598   0.964   8.905 -0.0571 -0.4026  0.6028
 4970TIP3   OH236468   4.648   1.721   0.033  0.2216  0.2762 -0.1274
 4970TIP3    H136469   4.741   1.738   0.021  0.1854  0.4098 -0.2154
 4970TIP3    H236470   4.613   1.714  -0.056  0.4491 -1.3958 -0.1171
 4971TIP3   OH236471   1.249   2.735   2.863 -0.3421  0.7648  0.3996
 4971TIP3    H136472   1.251   2.640   2.852  1.1522  0.8740 -0.4754
 4971TIP3    H236473   1.307   2.752   2.938  1.5047  1.1429 -1.0509
 4972TIP3   OH236474   2.444   4.109   0.750  0.9417 -0.4334 -0.4171
 4972TIP3    H136475   2.504   4.107   0.825  0.1216 -0.9206  0.2365
 4972TIP3    H236476   2.441   4.018   0.719 -1.8835 -1.1304  1.5478
 4973TIP3   OH236477   2.366   1.285   1.484 -0.1335 -0.3560  0.0896
 4973TIP3    H136478   2.385   1.359   1.426 -0.8374 -0.7447 -0.6595
 4973TIP3    H236479   2.366   1.323   1.572 -1.1409  0.6852 -0.3261
 4974TIP3   OH236480   6.228   2.805   8.805  0.8264 -0.0399  0.1720
 4974TIP3    H136481   6.159   2.780   8.867  1.0025  0.8569  0.7514
 4974TIP3    H236482   6.186   2.798   8.719 -0.2315  1.1693  0.5534
 4975TIP3   OH236483   1.801   5.049   0.883 -0.3042 -0.2362  0.2866
 4975TIP3    H136484   1.730   5.111   0.869  0.4225  0.3704 -0.8322
 4975TIP3    H236485   1.848   5.047   0.800 -0.0125 -1.9192  0.4541
 4976TIP3   OH236486   5.205   3.140   2.594  0.2618  0.1883  0.5353
 4976TIP3    H136487   5.127   3.103   2.554  1.1146 -0.0295 -1.0047
 4976TIP3    H236488   5.276   3.118   2.534  1.5044  0.4568  1.8480
 4977TIP3   OH236489   4.264   5.724   1.667 -0.3728  0.3482 -0.0829
 4977TIP3    H136490   4.272   5.681   1.752  0.3595  2.0526  0.7717
 4977TIP3    H236491   4.342   5.779   1.661  0.0704 -0.4113 -2.2988
 4978TIP3   OH236492   6.068   4.502   7.146  0.5736  0.1814  0.3917
 4978TIP3    H136493   6.060   4.411   7.176  1.1314  0.7798  2.5265
 4978TIP3    H236494   6.099   4.550   7.223 -1.0104  2.4277 -0.2596
 4979TIP3   OH236495   3.684   0.827   0.949  0.2088  0.0617 -0.0233
 4979TIP3    H136496   3.631   0.761   0.905  3.0152 -2.0114 -0.5547
 4979TIP3    H236497   3.648   0.831   1.038  0.2783 -2.6873  0.2118
 4980TIP3   OH236498   0.409   1.490   7.953 -0.2031 -0.4075 -0.2266
 4980TIP3    H136499   0.399   1.536   7.870  1.0260 -0.3673 -0.3713
 4980TIP3    H236500   0.325   1.446   7.967 -1.1705  1.2690 -0.4401
 4981TIP3   OH236501   4.163   2.335   1.330  0.0697  0.1925 -0.1434
 4981TIP3    H136502   4.080   2.366   1.366  0.0680 -0.2707  0.2522
 4981TIP3    H236503   4.225   2.342   1.402  0.3800  0.5253 -0.4349
 4982TIP3   OH236504   3.146   6.062   0.111  0.3184 -0.1275 -0.5613
 4982TIP3    H136505   3.108   6.150   0.104  1.2833  0.3062 -0.4909
 4982TIP3    H236506   3.240   6.076   0.103  0.6509 -0.9407  1.4298
 4983TIP3   OH236507   3.887   0.314   1.902 -0.0626 -0.0198  0.2561
 4983TIP3    H136508   3.942   0.291   1.827 -0.1072 -0.9301  0.5012
 4983TIP3    H236509   3.929   0.271   1.976 -0.6011  0.0346  0.5913
 4984TIP3   OH236510   0.797   3.541   8.890  0.3106 -0.0385 -0.4850
 4984TIP3    H136511   0.711   3.574   8.865  0.2798  0.3977  0.1708
 4984TIP3    H236512   0.855   3.617   8.883  0.2164  0.2315  1.1423
 4985TIP3   OH236513   4.668   5.071   8.329 -0.1236  0.1526 -0.5859
 4985TIP3    H136514   4.715   5.090   8.410 -2.3837  2.4470  0.3329
 4985TIP3    H236515   4.617   4.992   8.348 -0.4934  0.5724  0.2007
 4986TIP3   OH236516   4.685   2.717   0.331 -0.2988 -0.2315  0.4527
 4986TIP3    H136517   4.644   2.797   0.299  0.3403  0.2088  0.7162
 4986TIP3    H236518   4.624   2.647   0.307 -0.2888  0.1894 -0.8844
 4987TIP3   OH236519   4.043   0.324   8.679  0.5788  0.0050  0.1799
 4987TIP3    H136520   4.107   0.317   8.608 -0.9778 -1.9661 -1.1474
 4987TIP3    H236521   4.020   0.233   8.700 -0.8481  0.6121  1.4949
 4988TIP3   OH236522   3.428   2.373   1.778 -0.2914 -0.2955 -0.8949
 4988TIP3    H136523   3.401   2.459   1.746  0.2628  0.2231 -0.0217
 4988TIP3    H236524   3.488   2.340   1.712  1.0790  0.8862 -0.2937
 4989TIP3   OH236525   4.638   6.215   2.976 -0.1644 -0.1623 -0.8401
 4989TIP3    H136526   4.710   6.278   2.977  0.1023 -0.4615  0.0572
 4989TIP3    H236527   4.565   6.262   2.935  0.2434  0.4842 -0.8330
 4990TIP3   OH236528   3.806   6.160   2.965 -0.3641  0.2129 -0.8080
 4990TIP3    H136529   3.736   6.099   2.988  1.4779 -1.1039  1.6875
 4990TIP3    H236530   3.852   6.118   2.893 -0.4411 -0.2720 -0.5743
 4991TIP3   OH236531   4.166   3.148   8.778 -0.5321  0.1264  0.0297
 4991TIP3    H136532   4.118   3.223   8.812 -1.9779 -0.6635 -0.2051
 4991TIP3    H236533   4.257   3.178   8.774 -0.8004  1.2851  1.5818
 4992TIP3   OH236534   0.191   6.107   1.046  0.1161  0.1381  0.1210
 4992TIP3    H136535   0.192   6.195   1.009  0.3037  0.1478  0.1491
 4992TIP3    H236536   0.254   6.058   0.993 -1.1066 -0.3921 -0.9012
 4993TIP3   OH236537   5.534   5.883   2.155  0.3834  0.1781  0.0895
 4993TIP3    H136538   5.488   5.863   2.073  1.0253  1.6544 -0.6831
 4993TIP3    H236539   5.531   5.979   2.161 -0.4718  0.0630  2.3158
 4994TIP3   OH236540   3.425   6.574   0.494 -0.1189  0.1855  0.1054
 4994TIP3    H136541   3.511   6.600   0.462 -0.0221 -0.1559  0.0853
 4994TIP3    H236542   3.398   6.644   0.553  0.5493 -0.1325  0.7971
 4995TIP3   OH236543   0.760   5.123   0.377  0.2778 -0.5109 -0.4019
 4995TIP3    H136544   0.853   5.111   0.356  0.4784 -0.4499  0.4215
 4995TIP3    H236545   0.747   5.077   0.460  0.1725  1.5597  0.8095
 4996TIP3   OH236546   0.861   6.701   8.328  0.6033 -0.0985 -0.1100
 4996TIP3    H136547   0.943   6.749   8.316 -0.6736  2.5475  0.7223
 4996TIP3    H236548   0.863   6.672   8.419  0.4368  0.4473  0.0772
 4997TIP3   OH236549   4.859   2.553   1.423 -0.0050  0.2147  0.1190
 4997TIP3    H136550   4.823   2.629   1.378  0.0807  0.4024  0.3689
 4997TIP3    H236551   4.812   2.548   1.506  0.0879  0.0797  0.1655
 4998TIP3   OH236552   3.253   2.377   1.996  0.2785  0.3620  0.4954
 4998TIP3    H136553   3.316   2.381   1.923  1.3388 -0.5561  1.3234
 4998TIP3    H236554   3.169   2.359   1.954  0.8927 -0.3082 -0.5052
 4999TIP3   OH236555   2.846   4.052   2.208  0.4131 -0.1422  0.2216
 4999TIP3    H136556   2.888   4.038   2.123  2.0125  2.0141  0.5663
 4999TIP3    H236557   2.754   4.028   2.193  1.2251 -2.8232 -1.1966
 5000TIP3   OH236558   4.996   5.745   2.253  0.0294  0.5966 -0.1572
 5000TIP3    H136559   5.026   5.663   2.293  1.1553  1.0852  0.0401
 5000TIP3    H236560   4.903   5.730   2.235  0.3486 -0.9699 -0.7337
 5001TIP3   OH236561   4.434   0.369   1.415 -0.0474 -0.0293  0.5941
 5001TIP3    H136562   4.392   0.292   1.377  0.8560 -0.2003 -0.1031
 5001TIP3    H236563   4.367   0.437   1.412 -0.1112 -0.1384 -1.0052
 5002TIP3   OH236564   1.559   2.897   2.267 -0.3708 -0.1273 -0.6438
 5002TIP3    H136565   1.643   2.938   2.290 -0.3787 -0.3490 -0.2160
 5002TIP3    H236566   1.510   2.966   2.222 -0.5047  0.4311  0.3361
 5003TIP3   OH236567   6.611   0.361   8.203 -0.2495 -0.0578 -0.2345
 5003TIP3    H136568   6.673   0.433   8.214 -1.8390  1.0615  2.1775
 5003TIP3    H236569   6.665   0.282   8.211  1.0786  0.8705  0.4153
 5004TIP3   OH236570   6.421   3.188   0.228  0.2754 -0.1034  0.6566
 5004TIP3    H136571   6.480   3.147   0.292 -0.1180 -0.4821  0.7820
 5004TIP3    H236572   6.341   3.136   0.233 -0.0959  0.4510  0.5361
 5005TIP3   OH236573   4.172   6.663   7.965 -0.4717 -0.1142  0.1928
 5005TIP3    H136574   4.260   6.673   7.929  0.3352 -1.7925  1.5719
 5005TIP3    H236575   4.114   6.689   7.894  1.0900  3.2114 -0.0827
 5006TIP3   OH236576   0.987   2.284   7.252 -0.8535  0.7212 -0.1446
 5006TIP3    H136577   0.905   2.236   7.255 -1.9849  2.3982 -1.7506
 5006TIP3    H236578   1.052   2.220   7.222 -1.5122 -0.6447  1.2373
 5007TIP3   OH236579   1.834   4.959   2.907  0.3542 -0.0958 -0.2322
 5007TIP3    H136580   1.772   4.911   2.963  1.0168 -1.1829 -0.4047
 5007TIP3    H236581   1.779   5.012   2.850 -0.3650  0.1907  0.6991
 5008TIP3   OH236582   6.028   4.485   8.500 -0.5220  0.8645 -1.0539
 5008TIP3    H136583   6.097   4.540   8.462 -1.2612  1.0405 -2.2129
 5008TIP3    H236584   6.018   4.516   8.589  1.5670  0.1794 -0.5163
 5009TIP3   OH236585   2.679   4.144   0.261  0.0145  0.0257 -0.8033
 5009TIP3    H136586   2.607   4.083   0.280  0.6021 -0.3440  0.3541
 5009TIP3    H236587   2.708   4.173   0.347  0.5501  1.0090 -1.3034
 5010TIP3   OH236588   5.591   2.646   0.517  0.3902  0.2040 -0.3471
 5010TIP3    H136589   5.504   2.641   0.557  0.2056  1.0934 -0.6253
 5010TIP3    H236590   5.645   2.689   0.583  0.8183 -1.0187  0.1302
 5011TIP3   OH236591   3.541   5.751   1.030 -0.5510  0.4557 -0.5774
 5011TIP3    H136592   3.505   5.698   0.959 -0.5904  0.3907 -0.5079
 5011TIP3    H236593   3.469   5.808   1.057 -0.6253  0.2751 -0.3888
 5012TIP3   OH236594   1.749   4.279   1.693  0.2793  0.3484  0.3217
 5012TIP3    H136595   1.676   4.278   1.755  0.1495  0.0188  0.1697
 5012TIP3    H236596   1.725   4.213   1.627  0.7775  0.1454  0.3413
 5013TIP3   OH236597   5.464   5.597   8.646  0.0325 -0.1003  0.0346
 5013TIP3    H136598   5.409   5.675   8.653 -0.9076 -0.6495 -0.9993
 5013TIP3    H236599   5.431   5.539   8.714 -0.7193 -0.4429 -0.6070
 5014TIP3   OH236600   1.388   5.987   1.070 -0.0328 -0.0706 -0.4351
 5014TIP3    H136601   1.329   5.956   1.001  1.5118  1.3976 -2.5235
 5014TIP3    H236602   1.475   5.979   1.032  0.9092  0.5877  1.4657
 5015TIP3   OH236603   1.180   4.557   8.040 -0.6614 -0.3923 -0.0429
 5015TIP3    H136604   1.157   4.626   8.102  2.6987  1.3059 -0.4703
 5015TIP3    H236605   1.120   4.570   7.966  0.0021  2.2716 -0.2017
 5016TIP3   OH236606   6.126   0.203   1.408  0.2296  0.0426  0.4008
 5016TIP3    H136607   6.112   0.140   1.338  2.9104 -2.1105  1.6327
 5016TIP3    H236608   6.049   0.193   1.464 -1.4755  1.1038 -1.5833
 5017TIP3   OH236609   5.475   6.706   1.631  0.3228  0.0106 -0.2075
 5017TIP3    H136610   5.544   6.743   1.686 -0.6039  0.8149  0.4471
 5017TIP3    H236611   5.447   6.778   1.575 -0.6261 -0.0333  0.1933
 5018TIP3   OH236612   2.952   3.426   1.565 -0.9541  0.0480 -0.0103
 5018TIP3    H136613   3.015   3.405   1.496  0.1551  2.2072  0.2637
 5018TIP3    H236614   2.994   3.496   1.615 -1.6138 -1.5039  2.9955
 5019TIP3   OH236615   2.784   1.361   0.779  0.5500  0.5343 -0.5780
 5019TIP3    H136616   2.756   1.272   0.803 -2.3184  0.9551 -1.9044
 5019TIP3    H236617   2.759   1.414   0.855 -0.4207  0.6006 -0.9324
 5020TIP3   OH236618   3.660   1.165   7.293 -0.4138 -0.4975  0.0811
 5020TIP3    H136619   3.659   1.170   7.389  0.4205 -2.0308  0.2106
 5020TIP3    H236620   3.567   1.158   7.269 -0.7345  1.2160  0.6398
 5021TIP3   OH236621   4.775   4.435   1.096 -0.6066 -0.1163 -0.0489
 5021TIP3    H136622   4.805   4.462   1.009 -0.5327 -0.4564 -0.1275
 5021TIP3    H236623   4.692   4.390   1.080 -0.6738 -0.0390  0.0742
 5022TIP3   OH236624   2.817   6.242   1.912  0.0419 -0.4176  0.1271
 5022TIP3    H136625   2.839   6.312   1.973 -2.8383  0.5236  0.2048
 5022TIP3    H236626   2.809   6.164   1.967 -0.1267 -0.0873  0.5737
 5023TIP3   OH236627   6.694   5.171   2.630 -0.4771 -0.3449  0.1373
 5023TIP3    H136628   6.693   5.216   2.545 -1.1323  0.4439  0.5417
 5023TIP3    H236629   6.770   5.114   2.626 -0.5800 -0.4313 -1.0429
 5024TIP3   OH236630   0.124   6.523   2.665 -0.9015  0.1442  0.2144
 5024TIP3    H136631   0.217   6.518   2.683 -0.8440  0.6661  0.0676
 5024TIP3    H236632   0.083   6.533   2.751 -0.7019  1.5726  0.1598
 5025TIP3   OH236633   5.968   2.679   2.354  0.1107 -0.0250 -0.1028
 5025TIP3    H136634   5.980   2.652   2.262  1.5347  3.7579 -1.2293
 5025TIP3    H236635   6.049   2.651   2.397  0.3222 -0.0509 -0.5037
 5026TIP3   OH236636   5.801   6.409   8.654  0.1594  0.2601 -0.5302
 5026TIP3    H136637   5.727   6.469   8.661  0.1279  0.0442  1.4200
 5026TIP3    H236638   5.763   6.327   8.620 -0.5099  0.1482  0.4616
 5027TIP3   OH236639   0.664   2.375   1.708  0.3249  0.0891 -0.3430
 5027TIP3    H136640   0.726   2.305   1.728  0.4089  0.6177  1.4092
 5027TIP3    H236641   0.613   2.341   1.635  2.7347 -0.2958 -1.9435
 5028TIP3   OH236642   1.778   2.433   1.596 -0.2579  0.5412 -0.4411
 5028TIP3    H136643   1.760   2.493   1.669  0.6228  0.7587 -0.3939
 5028TIP3    H236644   1.698   2.381   1.588  0.3657 -0.9498  2.0789
 5029TIP3   OH236645   4.053   3.569   0.266 -0.0829  0.1291  0.0800
 5029TIP3    H136646   4.139   3.611   0.265  0.4449 -0.9067 -1.1772
 5029TIP3    H236647   3.991   3.639   0.247  0.2367  1.2825  2.8070
 5030TIP3   OH236648   5.374   2.154   8.541  0.5327 -0.1353  0.0731
 5030TIP3    H136649   5.318   2.077   8.547 -0.4988  0.7101  2.3481
 5030TIP3    H236650   5.330   2.212   8.479 -0.8540  0.2830  1.4098
 5031TIP3   OH236651   0.824   4.625   1.156 -0.2857 -0.3580  0.0781
 5031TIP3    H136652   0.865   4.572   1.225 -2.9499 -0.3428  1.8314
 5031TIP3    H236653   0.745   4.576   1.133  0.1370  0.0376 -2.4983
 5032TIP3   OH236654   2.508   6.079   1.045 -0.4784 -0.1705  0.2488
 5032TIP3    H136655   2.479   6.091   0.955  0.4384 -0.6396 -0.1222
 5032TIP3    H236656   2.603   6.089   1.041 -0.4250 -0.2543  1.1555
 5033TIP3   OH236657   2.829   3.692   8.456 -0.2144  0.1472  0.1064
 5033TIP3    H136658   2.810   3.645   8.374 -1.0993  0.3830  0.1686
 5033TIP3    H236659   2.746   3.734   8.479  0.0451  0.1327  1.0955
 5034TIP3   OH236660   6.213   0.311   0.605  0.2634  0.6493 -0.0103
 5034TIP3    H136661   6.302   0.313   0.570 -0.7697  0.7292 -2.8933
 5034TIP3    H236662   6.225   0.312   0.700  3.3788 -1.0975 -0.2362
 5035TIP3   OH236663   1.034   2.863   8.572  0.1773  0.4106  0.0734
 5035TIP3    H136664   1.129   2.856   8.587 -0.0710 -2.2476  0.9185
 5035TIP3    H236665   1.026   2.864   8.476  1.0560  0.9733 -0.0141
 5036TIP3   OH236666   1.031   0.234   0.564 -0.1445  0.0175 -0.2985
 5036TIP3    H136667   1.064   0.153   0.524  2.4547  1.1010 -0.4989
 5036TIP3    H236668   0.969   0.269   0.500 -1.3912 -1.7961 -0.1669
 5037TIP3   OH236669   1.915   1.858   1.596  0.2622 -0.3073  0.5874
 5037TIP3    H136670   1.885   1.931   1.649 -1.1152  0.3546 -1.0071
 5037TIP3    H236671   2.009   1.874   1.583  0.0058  1.1240  0.3768
 5038TIP3   OH236672   6.522   6.299   3.066  0.7096 -0.4900 -0.3225
 5038TIP3    H136673   6.505   6.392   3.050  0.0670 -0.1017  2.1712
 5038TIP3    H236674   6.435   6.260   3.075  0.9521 -1.4997 -1.8995
 5039TIP3   OH236675   2.213   5.070   0.587  0.1606 -0.1760 -0.0937
 5039TIP3    H136676   2.226   5.125   0.510  1.0785 -1.2351 -0.7221
 5039TIP3    H236677   2.301   5.058   0.623 -0.4717  2.2426  2.5556
 5040TIP3   OH236678   3.197   6.645   1.514  0.3458  0.2348 -0.6103
 5040TIP3    H136679   3.102   6.653   1.522  0.4897 -0.0626  2.2962
 5040TIP3    H236680   3.211   6.569   1.458 -1.1167 -0.0292 -0.6437
 5041TIP3   OH236681   3.623   4.002   0.014 -0.2957 -0.1108 -0.1004
 5041TIP3    H136682   3.556   4.061   0.049 -0.4444 -1.1085  1.4183
 5041TIP3    H236683   3.575   3.923  -0.011  0.1579 -0.4227 -0.0067
 5042TIP3   OH236684   5.083   2.916   7.938  0.4380  0.2571 -0.1798
 5042TIP3    H136685   5.080   2.899   8.032  1.5635 -2.0768 -0.5014
 5042TIP3    H236686   5.005   2.874   7.903  0.0942  1.0034 -0.3271
 5043TIP3   OH236687   5.605   0.906   8.735  0.0183 -0.0394  0.5496
 5043TIP3    H136688   5.677   0.962   8.706 -0.3441  0.8880  1.3702
 5043TIP3    H236689   5.625   0.887   8.827 -0.4330 -0.3453  0.5874
 5044TIP3   OH236690   3.739   6.167   2.170  0.1723  0.2834  0.0181
 5044TIP3    H136691   3.779   6.203   2.249  0.6928 -1.6027  0.6840
 5044TIP3    H236692   3.662   6.120   2.202  0.4206 -0.5400 -0.5701
 5045TIP3   OH236693   0.854   0.410   1.463 -0.0598 -0.6688  0.9269
 5045TIP3    H136694   0.773   0.407   1.413  0.0783 -1.3690  0.7310
 5045TIP3    H236695   0.826   0.395   1.554 -0.0854 -1.5944  0.7736
 5046TIP3   OH236696   5.754   2.868   3.057 -0.0044 -0.1665 -0.2321
 5046TIP3    H136697   5.817   2.798   3.072  0.4076  0.1504 -0.4834
 5046TIP3    H236698   5.683   2.850   3.119  0.6961 -0.0716  0.6030
 5047TIP3   OH236699   1.043   5.552   0.191  0.0113 -0.5530 -0.1434
 5047TIP3    H136700   0.971   5.572   0.251 -0.8637  1.0620 -1.6536
 5047TIP3    H236701   1.089   5.479   0.233 -1.7088 -0.7662  1.5108
 5048TIP3   OH236702   2.165   5.564   8.496 -0.2810  0.4137 -0.6118
 5048TIP3    H136703   2.077   5.598   8.505 -0.5089 -0.6451  1.7266
 5048TIP3    H236704   2.217   5.639   8.468 -1.9606  0.9244 -2.6722
 5049TIP3   OH236705   6.117   5.624   8.385  0.1756  0.3628 -0.5641
 5049TIP3    H136706   6.177   5.597   8.455 -0.5635  1.7533  0.6700
 5049TIP3    H236707   6.030   5.605   8.420 -0.1827  0.6661 -1.2913
 5050TIP3   OH236708   4.679   4.739   3.038 -0.2986 -0.6824 -0.3285
 5050TIP3    H136709   4.693   4.734   2.944 -1.1163  0.1503 -0.5162
 5050TIP3    H236710   4.759   4.778   3.072 -0.1202 -0.7047 -0.7204
 5051TIP3   OH236711   6.045   3.229   2.159 -0.2104 -0.2148  0.2513
 5051TIP3    H136712   6.126   3.274   2.134 -0.5217  0.8629  1.1475
 5051TIP3    H236713   6.070   3.177   2.235 -0.3337 -0.0143  0.4257
 5052TIP3   OH236714   4.615   2.312   2.518 -0.0694 -0.0114  0.2933
 5052TIP3    H136715   4.522   2.300   2.498 -0.1330 -1.7103  1.3210
 5052TIP3    H236716   4.623   2.404   2.542 -1.7590 -0.1062  1.3998
 5053TIP3   OH236717   5.099   5.322   7.611 -0.0399  0.4312 -0.5822
 5053TIP3    H136718   5.108   5.366   7.696  1.7579  1.5836 -1.3068
 5053TIP3    H236719   5.189   5.303   7.585 -0.6328 -0.8753 -1.7568
 5054TIP3   OH236720   0.395   0.742   0.155 -0.1659 -0.6078 -0.7260
 5054TIP3    H136721   0.337   0.666   0.158  0.7156 -1.2692  1.1463
 5054TIP3    H236722   0.466   0.716   0.097 -0.2519 -0.9371 -0.6854
 5055TIP3   OH236723   3.846   1.264   2.942 -0.4888  0.2831 -0.2855
 5055TIP3    H136724   3.841   1.287   3.035  0.0993 -0.3139 -0.0964
 5055TIP3    H236725   3.808   1.176   2.937  2.0916 -0.9344 -0.1054
 5056TIP3   OH236726   3.890   5.211   2.142  0.5995 -0.6395 -0.2253
 5056TIP3    H136727   3.832   5.135   2.152  2.1062 -1.9398 -0.8830
 5056TIP3    H236728   3.911   5.237   2.231 -0.1705 -0.8015  0.0129
 5057TIP3   OH236729   6.336   4.591   1.316 -0.4001 -0.1193 -0.7116
 5057TIP3    H136730   6.314   4.623   1.228 -0.3105 -0.2502 -0.7831
 5057TIP3    H236731   6.388   4.512   1.300 -2.2921 -1.4727 -0.5672
 5058TIP3   OH236732   2.859   5.491   0.074 -0.5998  0.2541  0.1710
 5058TIP3    H136733   2.882   5.574   0.115 -0.9347  0.4322  0.0053
 5058TIP3    H236734   2.844   5.513  -0.018 -1.3043  0.1236  0.2511
 5059TIP3   OH236735   0.410   4.633   8.919  0.1976 -0.3331  0.4608
 5059TIP3    H136736   0.439   4.720   8.892 -1.3298  0.6638  1.8269
 5059TIP3    H236737   0.333   4.615   8.865  0.3723 -0.7559  0.3442
 5060TIP3   OH236738   3.044   6.024   2.515 -0.0074  0.5868  0.2591
 5060TIP3    H136739   3.067   6.105   2.560  2.1552 -0.3382  0.9777
 5060TIP3    H236740   3.063   5.955   2.579 -1.0633 -0.5344 -0.5970
 5061TIP3   OH236741   3.576   0.697   2.660  0.1796  0.4790 -0.2096
 5061TIP3    H136742   3.617   0.775   2.698 -1.5320  0.6211  1.5022
 5061TIP3    H236743   3.601   0.699   2.568  0.1097  3.0971 -0.2334
 5062TIP3   OH236744   6.684   1.535   7.929  0.0379  0.5667 -0.3191
 5062TIP3    H136745   6.632   1.559   8.006 -1.4775 -0.7782 -0.8559
 5062TIP3    H236746   6.708   1.618   7.889  1.6047  1.3403  2.0196
 5063TIP3   OH236747   2.635   0.879   0.683 -0.0427 -0.3766  0.0917
 5063TIP3    H136748   2.580   0.929   0.743 -0.2302  0.6028 -0.8691
 5063TIP3    H236749   2.595   0.792   0.681 -0.5855 -0.1481  0.6618
 5064TIP3   OH236750   5.930   2.336   1.672 -0.5383 -1.0016 -0.2310
 5064TIP3    H136751   5.891   2.424   1.673 -1.9553 -1.6195  0.0852
 5064TIP3    H236752   6.022   2.352   1.695 -0.6356  0.4556 -0.7002
 5065TIP3   OH236753   0.828   6.677   0.550 -0.2895  0.5166  0.4435
 5065TIP3    H136754   0.878   6.718   0.479 -0.6228 -0.2586 -0.2603
 5065TIP3    H236755   0.829   6.742   0.621  0.9059  0.8990  0.1074
 5066TIP3   OH236756   2.880   5.387   2.696  0.2039  0.6340 -0.4137
 5066TIP3    H136757   2.882   5.311   2.639  0.9906  0.3680 -0.0434
 5066TIP3    H236758   2.895   5.461   2.637 -0.6229  0.5206 -0.7816
 5067TIP3   OH236759   2.080   2.461   7.730 -0.2575 -0.4978  0.7410
 5067TIP3    H136760   2.000   2.459   7.678 -1.1023 -1.0860  2.0134
 5067TIP3    H236761   2.052   2.489   7.817  0.9045 -0.8418  1.2505
 5068TIP3   OH236762   6.459   4.224   0.976  0.0936 -0.2238  0.0435
 5068TIP3    H136763   6.429   4.229   0.885 -0.0320  0.1128  0.1043
 5068TIP3    H236764   6.537   4.279   0.979 -0.8040  1.0776  0.5082
 5069TIP3   OH236765   1.678   6.584   1.180 -0.7221  0.5120  0.6626
 5069TIP3    H136766   1.745   6.535   1.133 -0.1191  0.2873  1.7178
 5069TIP3    H236767   1.728   6.638   1.242 -1.5389 -0.6321  2.3997
 5070TIP3   OH236768   1.140   1.502   1.943  0.0495 -0.1659  0.1954
 5070TIP3    H136769   1.061   1.524   1.992 -0.2844 -0.7850 -0.0452
 5070TIP3    H236770   1.131   1.551   1.861 -0.5624 -0.9560 -0.2302
 5071TIP3   OH236771   4.383   3.256   3.228 -0.3519  0.2775  0.0047
 5071TIP3    H136772   4.404   3.323   3.293  0.7139 -0.2965  0.2763
 5071TIP3    H236773   4.460   3.200   3.226 -2.2618 -2.7401  1.9878
 5072TIP3   OH236774   4.033   2.800   2.012 -0.2301  0.1088 -0.7323
 5072TIP3    H136775   4.010   2.854   2.087  2.1389  0.5464 -0.2466
 5072TIP3    H236776   3.963   2.735   2.007 -1.4745  1.2651  0.6115
 5073TIP3   OH236777   0.773   6.171   1.745 -0.1782 -0.0361  0.4530
 5073TIP3    H136778   0.822   6.179   1.663  0.1104 -0.3641  0.5886
 5073TIP3    H236779   0.824   6.223   1.808 -0.2589  0.0064  0.4830
 5074TIP3   OH236780   2.411   0.243   1.909 -0.1395 -0.0725  0.2106
 5074TIP3    H136781   2.460   0.324   1.924  0.3360 -0.2504 -0.3551
 5074TIP3    H236782   2.348   0.239   1.981 -0.7028  1.1972 -0.1888
 5075TIP3   OH236783   0.823   5.173   2.288  0.0475 -0.0693  0.2893
 5075TIP3    H136784   0.817   5.179   2.383 -1.4332 -0.8139  0.2583
 5075TIP3    H236785   0.790   5.086   2.266 -1.5437  0.8141 -1.0488
 5076TIP3   OH236786   5.132   4.585   2.944  0.4674 -0.3783 -0.1597
 5076TIP3    H136787   5.206   4.530   2.969  3.4705  2.1147 -2.7377
 5076TIP3    H236788   5.117   4.641   3.020  1.6131 -0.5910  0.2445
 5077TIP3   OH236789   4.937   0.508   8.474  0.0051  0.1491 -0.2957
 5077TIP3    H136790   5.002   0.461   8.421  0.4835  1.3305 -0.7847
 5077TIP3    H236791   4.949   0.600   8.451 -0.0502  0.6689  1.5793
 5078TIP3   OH236792   2.002   5.733   7.897 -0.2413 -0.2215 -0.2395
 5078TIP3    H136793   1.936   5.668   7.872 -0.2111 -0.7495  0.9686
 5078TIP3    H236794   2.064   5.684   7.951  0.0362  0.7076  0.3014
 5079TIP3   OH236795   6.461   5.066   8.840 -0.5043  0.3096  0.6509
 5079TIP3    H136796   6.529   4.998   8.848 -0.6817 -0.0193 -0.4499
 5079TIP3    H236797   6.401   5.032   8.773 -0.4362  1.6801 -0.1514
 5080TIP3   OH236798   1.220   3.536   8.517 -0.1358 -0.0226  0.2172
 5080TIP3    H136799   1.148   3.475   8.529 -0.4920  0.0179 -1.4237
 5080TIP3    H236800   1.221   3.554   8.423  0.6443  1.6672  0.5023
 5081TIP3   OH236801   1.917   6.345   2.118 -0.8257 -0.0149  1.1233
 5081TIP3    H136802   1.939   6.254   2.098  0.2941  0.5394 -0.3211
 5081TIP3    H236803   1.840   6.364   2.066 -0.3804  0.1850  0.5237
 5082TIP3   OH236804   6.415   1.282   0.697 -0.0228 -0.0386  0.3256
 5082TIP3    H136805   6.365   1.351   0.653 -1.6670 -0.4699  1.4221
 5082TIP3    H236806   6.409   1.304   0.790  0.5101 -0.9634  0.5876
 5083TIP3   OH236807   4.379   4.225   8.900 -0.0796  0.0745 -0.0374
 5083TIP3    H136808   4.475   4.228   8.908 -0.0753  1.0482 -0.3990
 5083TIP3    H236809   4.353   4.316   8.885 -1.2434  0.1736  2.0728
 5084TIP3   OH236810   3.351   5.399   0.111  0.2720  0.4553  0.1504
 5084TIP3    H136811   3.314   5.385   0.024  0.4208  2.1084 -0.2173
 5084TIP3    H236812   3.280   5.438   0.161  0.3771  0.0927  0.5829
 5085TIP3   OH236813   1.707   6.398   2.551  0.0276  0.1516  0.4068
 5085TIP3    H136814   1.776   6.430   2.492 -0.5828  1.2772  0.2695
 5085TIP3    H236815   1.754   6.376   2.631  0.4897  1.6015  0.5773
 5086TIP3   OH236816   5.197   5.834   0.053 -0.0165 -0.1439  0.0493
 5086TIP3    H136817   5.179   5.856   0.145 -1.1497 -0.9370  0.0353
 5086TIP3    H236818   5.193   5.738   0.050  2.0913 -0.2571 -0.4359
 5087TIP3   OH236819   0.489   1.030   0.173  0.2385 -0.3344  0.3836
 5087TIP3    H136820   0.548   1.097   0.207 -1.0376  1.0468 -0.0058
 5087TIP3    H236821   0.414   1.079   0.139  0.5013 -1.7269 -2.5267
 5088TIP3   OH236822   5.634   1.931   8.725 -0.2478  0.8239  0.0239
 5088TIP3    H136823   5.714   1.941   8.778 -0.7442  0.4267  0.8780
 5088TIP3    H236824   5.568   1.983   8.771 -0.9861 -0.4493  0.4757
 5089TIP3   OH236825   0.305   4.129   8.480  0.4328  0.0283 -0.8595
 5089TIP3    H136826   0.351   4.086   8.552  0.8994  1.3891 -0.3254
 5089TIP3    H236827   0.232   4.069   8.460  1.2831 -1.1954 -0.4219
 5090TIP3   OH236828   2.569   6.541   8.123 -0.3411  0.3082  0.1682
 5090TIP3    H136829   2.584   6.481   8.195  1.4073  1.7575  1.0935
 5090TIP3    H236830   2.557   6.627   8.164  2.2490  1.4608 -1.2211
 5091TIP3   OH236831   2.784   1.143   2.763 -0.2263 -0.4499 -0.2687
 5091TIP3    H136832   2.790   1.239   2.765  1.4063 -0.4897 -1.0516
 5091TIP3    H236833   2.694   1.124   2.789 -1.2620  1.3981 -2.1256
 5092TIP3   OH236834   6.502   4.176   1.741 -0.9646 -0.2302  0.0852
 5092TIP3    H136835   6.441   4.209   1.675 -0.7304  0.7559  0.3480
 5092TIP3    H236836   6.584   4.221   1.723 -0.6090 -0.7332  0.4099
 5093TIP3   OH236837   0.805   2.354   8.309 -0.7988  0.2566 -0.4478
 5093TIP3    H136838   0.727   2.303   8.328 -0.6249  0.1623  0.0105
 5093TIP3    H236839   0.779   2.445   8.324 -0.9658  0.2657 -0.7877
 5094TIP3   OH236840   4.220   2.821   0.029 -0.0912 -0.1715  0.8464
 5094TIP3    H136841   4.225   2.889   0.096 -0.1301  2.3590 -1.5481
 5094TIP3    H236842   4.311   2.797   0.013 -0.0580 -0.5000  1.4956
 5095TIP3   OH236843   0.203   3.362   2.419 -0.1337  0.1209 -0.0586
 5095TIP3    H136844   0.215   3.267   2.428 -0.1645 -0.0590 -1.6003
 5095TIP3    H236845   0.278   3.400   2.463  1.0484 -0.7142 -1.2651
 5096TIP3   OH236846   1.380   5.415   0.269  0.3149  0.3163  0.4610
 5096TIP3    H136847   1.436   5.338   0.263 -0.5615 -0.4712  1.8778
 5096TIP3    H236848   1.374   5.447   0.179  0.0670 -1.7474 -0.3250
 5097TIP3   OH236849   5.377   5.322   3.225 -0.1335  0.0833  0.2992
 5097TIP3    H136850   5.409   5.402   3.184  0.5727 -0.7533 -0.8454
 5097TIP3    H236851   5.305   5.351   3.281  0.4951  1.5869  0.3841
 5098TIP3   OH236852   6.225   1.750   1.138  0.0459  0.0280  0.5906
 5098TIP3    H136853   6.320   1.762   1.129  0.0039  0.0170  0.1490
 5098TIP3    H236854   6.213   1.656   1.137  0.1198 -0.0049  1.5753
 5099TIP3   OH236855   5.303   0.912   2.344 -0.0128 -0.0109 -0.0874
 5099TIP3    H136856   5.251   0.882   2.269  0.0453 -0.4103  0.0316
 5099TIP3    H236857   5.378   0.956   2.305  1.6790 -2.8931 -0.3743
 5100TIP3   OH236858   2.885   6.402   7.344 -0.6422  0.1231  0.2397
 5100TIP3    H136859   2.979   6.403   7.364 -0.8835  1.5864  1.5269
 5100TIP3    H236860   2.852   6.326   7.391 -0.2526  0.1931  0.6368
 5101TIP3   OH236861   6.199   5.373   1.823 -1.0171 -0.0680 -0.3650
 5101TIP3    H136862   6.265   5.307   1.845 -0.6295 -0.3564 -2.1799
 5101TIP3    H236863   6.242   5.457   1.840 -1.0564 -0.2610  0.7404
 5102TIP3   OH236864   4.815   1.317   0.259 -0.2377 -0.2399  0.8022
 5102TIP3    H136865   4.877   1.372   0.306 -0.6132  0.2219  0.7692
 5102TIP3    H236866   4.759   1.379   0.212  0.4048 -0.7029 -0.6159
 5103TIP3   OH236867   5.479   5.833   7.907  1.1168 -0.0390  0.0591
 5103TIP3    H136868   5.386   5.846   7.890  1.3123  2.1364  0.4290
 5103TIP3    H236869   5.494   5.740   7.886 -0.3670  0.3660 -3.5490
 5104TIP3   OH236870   2.780   3.218   1.562 -0.3496 -0.0472  0.0386
 5104TIP3    H136871   2.860   3.269   1.566 -0.4312  0.0651  0.2228
 5104TIP3    H236872   2.776   3.187   1.471 -1.1012  1.5846 -0.5193
 5105TIP3   OH236873   6.404   5.099   1.265  0.2749  0.6661 -0.3673
 5105TIP3    H136874   6.376   5.190   1.263  0.1559  0.6460  0.1731
 5105TIP3    H236875   6.326   5.049   1.242  0.2209  0.6755 -0.2010
 5106TIP3   OH236876   0.711   3.954   1.335  0.2068  0.1608 -0.2144
 5106TIP3    H136877   0.719   3.862   1.358  1.6714 -0.4234 -2.7070
 5106TIP3    H236878   0.616   3.969   1.331 -0.0544 -1.0955  0.5825
 5107TIP3   OH236879   2.379   3.874   7.129  0.7596  0.2277  0.2247
 5107TIP3    H136880   2.466   3.892   7.165  1.9430 -3.8388 -0.1572
 5107TIP3    H236881   2.325   3.858   7.206  0.6437  1.4462  0.4179
 5108TIP3   OH236882   5.695   2.383   2.115  0.0466 -0.4272 -0.1323
 5108TIP3    H136883   5.763   2.404   2.050 -0.1768 -0.5333 -0.4024
 5108TIP3    H236884   5.738   2.323   2.176  0.4979  0.2997  0.2842
 5109TIP3   OH236885   2.666   0.425   1.196  0.1549  0.4035  0.0819
 5109TIP3    H136886   2.604   0.497   1.210 -0.1676  0.1039  0.2058
 5109TIP3    H236887   2.698   0.404   1.284  0.3930  0.5193  0.0246
 5110TIP3   OH236888   4.131   0.220   0.692  0.2115  0.0939 -0.2661
 5110TIP3    H136889   4.068   0.162   0.649  0.0718  1.7223 -2.3729
 5110TIP3    H236890   4.145   0.292   0.631  1.3487  1.6792  1.7073
 5111TIP3   OH236891   6.356   5.223   2.111 -0.1423 -0.2225  0.1546
 5111TIP3    H136892   6.275   5.240   2.160 -1.5232 -0.8163 -1.7850
 5111TIP3    H236893   6.412   5.298   2.130 -2.3245  1.7480 -0.7533
 5112TIP3   OH236894   4.872   3.113   1.084 -0.5839  0.4454 -0.1529
 5112TIP3    H136895   4.778   3.110   1.068 -0.4516  2.1840 -1.5753
 5112TIP3    H236896   4.884   3.184   1.146 -0.2758 -0.4966  0.8975
 5113TIP3   OH236897   4.540   3.232   0.331 -0.0978 -0.3326  0.3667
 5113TIP3    H136898   4.553   3.321   0.361 -0.2688 -0.2975  0.3362
 5113TIP3    H236899   4.475   3.195   0.391  0.1773 -0.5241  0.5510
 5114TIP3   OH236900   3.055   1.359   3.120  0.4736 -0.4307  0.0527
 5114TIP3    H136901   2.996   1.434   3.122  0.3646 -0.5419  1.2633
 5114TIP3    H236902   2.998   1.284   3.105  0.5212 -0.3539 -0.5686
 5115TIP3   OH236903   3.426   1.817   8.453  0.1157 -0.0993  0.1777
 5115TIP3    H136904   3.510   1.821   8.498  0.0471  1.0649  0.2158
 5115TIP3    H236905   3.387   1.903   8.466 -1.7546 -1.0420  1.4352
 5116TIP3   OH236906   6.532   6.414   2.059 -0.2889  0.4449  0.0345
 5116TIP3    H136907   6.605   6.390   2.116 -0.7926 -1.1604  0.0574
 5116TIP3    H236908   6.569   6.477   1.998  0.5630  1.2788  1.3652
 5117TIP3   OH236909   2.570   5.210   2.121 -0.1192 -0.0183 -0.1383
 5117TIP3    H136910   2.523   5.293   2.128 -0.4101 -0.2171  0.3194
 5117TIP3    H236911   2.503   5.143   2.137 -0.4453 -0.4770 -2.9459
 5118TIP3   OH236912   4.101   2.868   0.468 -0.3876 -0.1596 -0.6284
 5118TIP3    H136913   4.172   2.898   0.413 -0.8451 -1.3154 -1.9195
 5118TIP3    H236914   4.079   2.943   0.523  3.9240 -0.6047  2.2301
 5119TIP3   OH236915   6.154   2.823   2.645  0.0554 -0.1451  0.2325
 5119TIP3    H136916   6.059   2.830   2.655  0.1897  0.9151  0.9584
 5119TIP3    H236917   6.188   2.905   2.682  1.1647  0.1506 -1.3084
 5120TIP3   OH236918   5.173   3.309   2.811  0.7857 -0.4195 -0.1889
 5120TIP3    H136919   5.188   3.234   2.753  2.7724  0.1369 -0.4392
 5120TIP3    H236920   5.090   3.346   2.779  0.8640 -1.2411 -1.4352
 5121TIP3   OH236921   2.791   6.318   0.985  0.4365  0.8201 -0.4273
 5121TIP3    H136922   2.725   6.387   0.973 -0.3899  0.2352  0.5834
 5121TIP3    H236923   2.817   6.295   0.896 -0.9206  0.8963 -0.8765
 5122TIP3   OH236924   5.659   3.773   1.981  0.0007 -0.0771  0.0749
 5122TIP3    H136925   5.631   3.786   2.071  0.2743 -0.1884  0.1778
 5122TIP3    H236926   5.754   3.766   1.986 -0.1209 -2.6672  0.1267
 5123TIP3   OH236927   5.963   3.464   7.624  0.5950  0.2622 -0.2332
 5123TIP3    H136928   6.006   3.444   7.540  0.4028 -0.2155 -0.2247
 5123TIP3    H236929   5.872   3.439   7.609  0.2450  1.5556 -0.3530
 5124TIP3   OH236930   1.106   0.399   0.782 -0.1121  0.2999  0.2234
 5124TIP3    H136931   1.088   0.369   0.872  2.0272  1.0840  0.9862
 5124TIP3    H236932   1.065   0.333   0.726  1.1330 -1.9551  1.8190
 5125TIP3   OH236933   6.090   0.226   0.210 -0.1333  0.0232  0.0150
 5125TIP3    H136934   6.020   0.228   0.275  0.5063 -0.9577  0.7537
 5125TIP3    H236935   6.072   0.302   0.153 -0.9542  0.6364  1.0556
 5126TIP3   OH236936   0.549   5.344   7.470  0.0270 -0.2415  0.4483
 5126TIP3    H136937   0.643   5.342   7.483 -0.0685 -1.8753  1.2165
 5126TIP3    H236938   0.537   5.385   7.384  1.3261  1.1797  0.9077
 5127TIP3   OH236939   1.194   4.330   8.405 -0.6620  0.5230  0.0017
 5127TIP3    H136940   1.173   4.424   8.404  0.4801  0.9589  3.7477
 5127TIP3    H236941   1.286   4.326   8.379 -1.9453 -0.3387 -5.7055
 5128TIP3   OH236942   4.802   0.841   3.588 -0.0266  0.4120  0.1878
 5128TIP3    H136943   4.857   0.773   3.625  2.1782 -0.0606 -3.4354
 5128TIP3    H236944   4.823   0.920   3.638  0.1090 -0.7916  2.0916
 5129TIP3   OH236945   5.917   5.886   3.196  0.0696 -0.2946 -0.3070
 5129TIP3    H136946   5.953   5.819   3.254  0.4899 -1.0900 -1.4492
 5129TIP3    H236947   5.850   5.929   3.248  0.1350 -1.2764  0.6244
 5130TIP3   OH236948   4.920   1.358   2.856  0.4922 -0.4788  0.1304
 5130TIP3    H136949   4.981   1.370   2.784 -0.3879  2.6750 -0.2403
 5130TIP3    H236950   4.849   1.306   2.819  0.9827 -0.5701 -0.6876
 5131TIP3   OH236951   6.728   2.603   8.156 -0.2324 -0.7182  0.0791
 5131TIP3    H136952   6.661   2.565   8.213 -0.7738 -0.4653 -0.3739
 5131TIP3    H236953   6.809   2.594   8.205 -0.1084 -3.5784 -0.5063
 5132TIP3   OH236954   2.526   4.870   0.051 -0.5541 -0.5584  0.1657
 5132TIP3    H136955   2.529   4.907  -0.037  1.0440  0.1012  0.4671
 5132TIP3    H236956   2.515   4.776   0.037 -2.5186 -0.2540 -0.6518
 5133TIP3   OH236957   5.293   3.830   8.104  0.0556  0.3488 -0.2562
 5133TIP3    H136958   5.255   3.777   8.034  0.6484  0.5229 -0.7224
 5133TIP3    H236959   5.341   3.899   8.058 -0.6429  1.2557  0.3414
 5134TIP3   OH236960   2.271   3.552   8.811 -0.0546  0.3432  0.0100
 5134TIP3    H136961   2.298   3.505   8.890 -2.8758 -0.1162  0.8165
 5134TIP3    H236962   2.220   3.626   8.844  0.2439  1.2044 -1.3848
 5135TIP3   OH236963   5.033   4.721   8.418 -0.6055 -0.3790  0.1757
 5135TIP3    H136964   4.965   4.764   8.366 -0.2507  0.0191  0.0298
 5135TIP3    H236965   5.102   4.701   8.354  1.2145  2.8825  0.9120
 5136TIP3   OH236966   2.586   2.766   8.906 -0.2759  0.2953 -0.1867
 5136TIP3    H136967   2.616   2.814   8.983  0.4468 -0.4748  0.0320
 5136TIP3    H236968   2.561   2.834   8.843 -0.8760  0.9304  0.7228
 5137TIP3   OH236969   1.828   3.428   2.494  0.2933 -0.7986  0.4742
 5137TIP3    H136970   1.769   3.394   2.426  0.7936  1.6662 -1.3290
 5137TIP3    H236971   1.771   3.441   2.570 -1.0317 -0.6682 -0.4894
 5138TIP3   OH236972   4.547   5.017   7.343  0.5622 -0.0603 -0.1900
 5138TIP3    H136973   4.577   5.107   7.329 -1.2596  0.6839  0.3231
 5138TIP3    H236974   4.602   4.964   7.286  0.5782  1.5884 -1.8190
 5139TIP3   OH236975   4.234   1.010   8.858 -0.6614 -0.0278  0.3928
 5139TIP3    H136976   4.236   1.049   8.946 -2.1843  0.5250  0.2073
 5139TIP3    H236977   4.246   0.916   8.874 -0.5343  0.1058  1.1491
 5140TIP3   OH236978   1.360   6.736   7.845 -0.3505  0.7464  0.4916
 5140TIP3    H136979   1.364   6.690   7.762 -2.9174 -0.2644  0.8307
 5140TIP3    H236980   1.288   6.799   7.834  1.6161  3.2216  0.7950
 5141TIP3   OH236981   5.560   3.646   2.868  0.2560 -0.0318  0.1310
 5141TIP3    H136982   5.511   3.573   2.833  0.5428  0.2053 -0.7972
 5141TIP3    H236983   5.611   3.609   2.940 -0.4015 -0.5117  0.3570
 5142TIP3   OH236984   5.757   2.476   3.430 -0.0306 -0.6050  0.2442
 5142TIP3    H136985   5.720   2.564   3.442 -2.2586 -1.6830  2.1026
 5142TIP3    H236986   5.777   2.471   3.337 -0.4579  1.6459 -0.0390
 5143TIP3   OH236987   2.407   1.038   1.094 -0.0289  0.2747  0.0918
 5143TIP3    H136988   2.478   1.030   1.158 -0.6292  0.8127  0.8282
 5143TIP3    H236989   2.333   1.072   1.143 -0.7524 -0.0908 -0.7179
 5144TIP3   OH236990   0.965   5.370   1.851 -0.1302  0.2684  0.4703
 5144TIP3    H136991   0.942   5.306   1.919 -0.4689  0.5070  0.5832
 5144TIP3    H236992   1.005   5.443   1.899 -0.8704  0.6756  0.4731
 5145TIP3   OH236993   5.560   1.512   1.461 -0.3613  0.8900  0.1087
 5145TIP3    H136994   5.513   1.549   1.536 -0.6457  1.2186 -0.2316
 5145TIP3    H236995   5.492   1.486   1.400 -0.1053  2.5063 -0.9381
 5146TIP3   OH236996   5.863   6.673   0.347  0.0695  0.2009  0.2186
 5146TIP3    H136997   5.915   6.689   0.425  3.3994 -2.5442 -1.2132
 5146TIP3    H236998   5.915   6.708   0.275 -0.6974 -1.4048 -1.1926
 5147TIP3   OH236999   2.440   6.135   2.747  0.4168  0.2923 -0.3324
 5147TIP3    H137000   2.391   6.055   2.729 -0.7143  0.7418  0.6366
 5147TIP3    H237001   2.518   6.106   2.795  0.3166 -0.2759 -0.5109
 5148TIP3   OH237002   6.032   0.979   1.480 -0.0005 -0.1136 -0.7318
 5148TIP3    H137003   5.949   0.997   1.436 -0.1733  1.1676  0.0634
 5148TIP3    H237004   6.027   1.027   1.562  2.0662  1.1898 -1.2656
 5149TIP3   OH237005   0.775   6.514   1.225 -0.3328 -0.6497 -0.3282
 5149TIP3    H137006   0.686   6.479   1.232  0.0115 -1.6478 -0.8450
 5149TIP3    H237007   0.823   6.475   1.298 -0.6001  0.8618  0.7171
 5150TIP3   OH237008   1.701   3.876   0.929  0.6841  0.0960 -0.1712
 5150TIP3    H137009   1.708   3.962   0.968  1.2129  1.0836 -2.2953
 5150TIP3    H237010   1.792   3.850   0.912  0.4559  0.2619 -1.7989
 5151TIP3   OH237011   3.833   3.959   2.782 -0.4291  0.1878 -0.0462
 5151TIP3    H137012   3.831   3.866   2.763  1.1065 -0.8116  3.8024
 5151TIP3    H237013   3.920   3.988   2.752 -0.9550  0.4516 -1.3566
 5152TIP3   OH237014   3.782   4.522   1.549  0.2894  0.2111  0.4583
 5152TIP3    H137015   3.796   4.583   1.621 -0.0685 -1.7161  2.2715
 5152TIP3    H237016   3.700   4.477   1.571 -0.4518  0.3220 -1.7717
 5153TIP3   OH237017   5.667   0.402   8.066  0.4228 -0.1221 -0.0782
 5153TIP3    H137018   5.598   0.353   8.022  0.2048 -0.2772  0.4232
 5153TIP3    H237019   5.623   0.442   8.141  0.7344  0.3293 -0.1343
 5154TIP3   OH237020   3.406   3.053   8.469 -0.0227 -0.5026  0.0874
 5154TIP3    H137021   3.404   3.126   8.408  1.8347  0.5585  1.1865
 5154TIP3    H237022   3.323   3.008   8.455 -0.8774  1.3224 -1.2195
 5155TIP3   OH237023   5.644   2.852   0.107 -0.0991 -0.0192  0.5153
 5155TIP3    H137024   5.659   2.759   0.090  1.4859  0.1093  1.1179
 5155TIP3    H237025   5.582   2.854   0.180 -0.3898 -0.5872  0.2884
 5156TIP3   OH237026   0.050   3.717   2.630  0.4524  0.2732 -0.2217
 5156TIP3    H137027   0.032   3.809   2.611 -1.8712 -0.5200 -2.5588
 5156TIP3    H237028  -0.037   3.676   2.634  1.4440 -2.1656 -1.5550
 5157TIP3   OH237029   6.732   3.661   8.565  0.6897  0.9983  0.3645
 5157TIP3    H137030   6.735   3.663   8.469  0.8536 -0.5669  0.3055
 5157TIP3    H237031   6.822   3.680   8.592  0.2158  3.6327  0.3251
 5158TIP3   OH237032   2.587   5.740   8.723 -0.9401  0.1722 -0.2605
 5158TIP3    H137033   2.585   5.824   8.678  2.7245 -0.1324 -1.2981
 5158TIP3    H237034   2.680   5.723   8.738 -1.3013 -4.4441 -1.6421
 5159TIP3   OH237035   4.798   2.108   8.423 -0.0553  0.5231 -0.3925
 5159TIP3    H137036   4.831   2.018   8.411 -0.8557  0.0573  0.7683
 5159TIP3    H237037   4.870   2.154   8.466  1.0090  0.9272 -2.4786
 5160TIP3   OH237038   0.836   4.328   8.163  0.5424  0.4854  0.0240
 5160TIP3    H137039   0.770   4.347   8.097  1.1995  0.8337 -0.5442
 5160TIP3    H237040   0.872   4.413   8.187  2.6926  0.1514 -1.6911
 5161TIP3   OH237041   3.534   0.746   8.338  0.0455 -0.4934  0.3686
 5161TIP3    H137042   3.587   0.826   8.338 -0.0473 -0.3159 -2.5806
 5161TIP3    H237043   3.597   0.675   8.325 -0.1640 -0.4864 -0.8661
 5162TIP3   OH237044   2.501   5.022   0.627 -0.0322  0.1789 -0.0945
 5162TIP3    H137045   2.528   5.111   0.605 -0.6428  1.0739  2.4263
 5162TIP3    H237046   2.582   4.976   0.648  0.2256  0.3300 -0.7410
 5163TIP3   OH237047   4.591   1.189   2.992 -0.1512  0.4104  0.1720
 5163TIP3    H137048   4.633   1.261   3.038 -2.0167 -0.2472  3.2835
 5163TIP3    H237049   4.657   1.120   2.990  0.3728  0.8815  0.8262
 5164TIP3   OH237050   4.132   1.394   1.674 -0.7973 -0.6455 -0.2499
 5164TIP3    H137051   4.060   1.451   1.645 -1.3788 -0.5047  1.3675
 5164TIP3    H237052   4.100   1.353   1.754  0.7533 -0.9583  0.2518
 5165TIP3   OH237053   3.683   3.358   3.399 -0.1614 -0.2775 -0.3989
 5165TIP3    H137054   3.736   3.329   3.474 -2.3313 -0.4633  1.1348
 5165TIP3    H237055   3.620   3.419   3.437  0.6990  2.1880 -2.6444
 5166TIP3   OH237056   1.255   4.822   0.134 -0.4377 -0.1505  0.1778
 5166TIP3    H137057   1.333   4.846   0.085 -1.0173  0.5605 -0.4117
 5166TIP3    H237058   1.264   4.728   0.149  1.1111  0.1223  1.1808
 5167TIP3   OH237059   1.674   1.475   0.308 -0.2333  0.1562 -0.2907
 5167TIP3    H137060   1.722   1.552   0.338 -1.2175  0.4498  0.5931
 5167TIP3    H237061   1.677   1.481   0.212  0.1189  1.0292 -0.2354
 5168TIP3   OH237062   0.949   0.274   7.796 -0.0370  0.1171  0.1806
 5168TIP3    H137063   1.022   0.213   7.806 -0.3046 -0.0392  1.3754
 5168TIP3    H237064   0.871   0.220   7.807 -0.3289  0.3819 -0.5107
 5169TIP3   OH237065   1.394   6.445   7.586  0.3699  0.2534 -0.7022
 5169TIP3    H137066   1.421   6.498   7.511  1.4767 -0.8632 -1.1342
 5169TIP3    H237067   1.298   6.443   7.581  0.2754  2.4384 -0.4712
 5170TIP3   OH237068   1.535   3.447   1.161 -0.3033 -0.1818  0.3508
 5170TIP3    H137069   1.441   3.456   1.176 -0.3046 -0.4093  0.4981
 5170TIP3    H237070   1.547   3.355   1.138 -0.1295 -0.1323  0.2383
 5171TIP3   OH237071   3.566   3.976   1.742  0.0565 -0.2315 -0.2229
 5171TIP3    H137072   3.503   3.982   1.671 -0.1064 -0.7126 -0.1235
 5171TIP3    H237073   3.619   3.899   1.722 -0.0809 -0.4529  0.2451
 5172TIP3   OH237074   5.376   0.960   1.133 -0.3505  0.3269 -0.0003
 5172TIP3    H137075   5.282   0.950   1.148 -0.7008 -1.6975 -2.6844
 5172TIP3    H237076   5.383   1.036   1.075 -0.6602 -0.8525 -1.6614
 5173TIP3   OH237077   0.079   5.176   1.643 -0.4240 -0.5869 -0.7813
 5173TIP3    H137078   0.170   5.193   1.618  0.3959 -1.3790  1.3990
 5173TIP3    H237079   0.029   5.191   1.563  1.4457  1.2530 -1.7022
 5174TIP3   OH237080   0.876   5.441   0.868  0.5683  0.1086 -0.0543
 5174TIP3    H137081   0.846   5.420   0.956  0.6461 -0.1974 -0.1009
 5174TIP3    H237082   0.968   5.414   0.867  0.4532 -0.2834 -0.3595
 5175TIP3   OH237083   5.086   3.891   8.757 -0.4908 -0.4364  0.0494
 5175TIP3    H137084   5.086   3.798   8.780  1.1756 -0.2428  1.0266
 5175TIP3    H237085   5.023   3.930   8.818 -1.5343 -0.9712 -0.6669
 5176TIP3   OH237086   2.160   2.419   8.507 -0.2654 -0.4606 -0.2359
 5176TIP3    H137087   2.249   2.415   8.470  0.1818 -2.1589  0.9184
 5176TIP3    H237088   2.103   2.401   8.433  0.4359 -0.7842 -0.7104
 5177TIP3   OH237089   4.673   5.217   8.103  0.7238  0.0594 -0.0755
 5177TIP3    H137090   4.630   5.149   8.052 -0.0138  0.4298  0.0467
 5177TIP3    H237091   4.670   5.186   8.193 -1.2554  1.0670  0.2426
 5178TIP3   OH237092   5.036   5.126   8.782 -0.3164 -0.5736 -0.5784
 5178TIP3    H137093   4.976   5.199   8.794 -1.0927 -1.3526  0.4108
 5178TIP3    H237094   4.987   5.062   8.731 -0.1235 -0.9569 -0.2949
 5179TIP3   OH237095   0.329   0.450   1.231 -0.0447 -0.2415  0.6788
 5179TIP3    H137096   0.394   0.499   1.282  0.1447  0.0911  0.1370
 5179TIP3    H237097   0.362   0.455   1.141 -0.2114 -1.0693  0.5655
 5180TIP3   OH237098   3.142   5.935   1.294  0.0042 -0.4061 -0.4204
 5180TIP3    H137099   3.201   5.893   1.356 -0.5019 -0.9560 -0.2974
 5180TIP3    H237100   3.112   6.014   1.340  0.6827 -0.0901 -0.5124
 5181TIP3   OH237101   0.618   4.789   7.573 -0.3295 -0.1869  0.1737
 5181TIP3    H137102   0.566   4.779   7.653  0.2055 -0.5410  0.4812
 5181TIP3    H237103   0.703   4.753   7.595  0.8002  2.4279  0.4190
 5182TIP3   OH237104   2.978   2.467   0.270 -0.4589  0.0434  0.7628
 5182TIP3    H137105   2.960   2.373   0.260 -0.8468  0.0750  1.1291
 5182TIP3    H237106   2.974   2.502   0.181 -1.1922 -0.1357  0.7164
 5183TIP3   OH237107   2.875   1.141   1.843 -0.8594 -0.3013 -0.0386
 5183TIP3    H137108   2.912   1.229   1.849 -1.2736 -0.1609  0.5151
 5183TIP3    H237109   2.949   1.082   1.859 -0.5599 -0.0584 -0.5243
 5184TIP3   OH237110   1.038   2.820   7.681  0.5564  0.5442 -0.1744
 5184TIP3    H137111   1.114   2.841   7.735 -0.0924  2.4272  0.0585
 5184TIP3    H237112   1.016   2.730   7.706  1.5469  0.6263  1.1268
 5185TIP3   OH237113   0.101   3.108   2.364 -0.4332 -0.0320 -0.4541
 5185TIP3    H137114   0.169   3.046   2.391 -0.2228  0.5825  0.4844
 5185TIP3    H237115   0.083   3.086   2.273 -1.0972 -2.1738  0.1195
 5186TIP3   OH237116   5.314   0.150   2.018 -0.0467  0.5142 -0.6963
 5186TIP3    H137117   5.260   0.229   2.024 -1.4338 -0.2913 -1.8296
 5186TIP3    H237118   5.331   0.140   1.925 -1.4756 -1.5011 -0.8007
 5187TIP3   OH237119   0.586   0.255   0.019 -0.3219 -0.0423  0.2744
 5187TIP3    H137120   0.532   0.317  -0.030  0.8084 -0.4987 -1.6740
 5187TIP3    H237121   0.560   0.169  -0.013  0.1297 -0.3894  0.8120
 5188TIP3   OH237122   1.372   1.460   2.254 -0.2477 -0.2285  0.3794
 5188TIP3    H137123   1.291   1.470   2.303  0.3743  2.9372  0.9915
 5188TIP3    H237124   1.345   1.420   2.171 -2.5121  1.0597  0.4178
 5189TIP3   OH237125   1.727   6.654   1.956  0.1719  0.0541  0.1399
 5189TIP3    H137126   1.681   6.629   2.036  0.1790 -1.7731 -0.3865
 5189TIP3    H237127   1.742   6.572   1.910 -0.0381  1.0763 -1.8688
 5190TIP3   OH237128   6.224   0.959   0.474 -0.4347  0.6426  0.0182
 5190TIP3    H137129   6.278   0.888   0.440  0.3401  1.1497  0.1463
 5190TIP3    H237130   6.220   0.944   0.568 -0.2688  0.7642  0.0456
 5191TIP3   OH237131   2.989   4.620   8.657  0.4018 -0.2552 -0.1112
 5191TIP3    H137132   2.923   4.675   8.614  0.3626 -0.1459  0.0889
 5191TIP3    H237133   3.071   4.643   8.612  1.2953  3.3981  2.9205
 5192TIP3   OH237134   1.098   1.321   2.685 -0.6052 -0.4061  0.4673
 5192TIP3    H137135   1.131   1.411   2.686 -1.5685 -0.0367  0.6870
 5192TIP3    H237136   1.034   1.319   2.756 -2.1830 -0.6388 -0.8963
 5193TIP3   OH237137   2.233   2.391   0.905  0.3543  0.5320  0.3039
 5193TIP3    H137138   2.242   2.321   0.840 -1.0312  1.2219 -0.6789
 5193TIP3    H237139   2.322   2.423   0.918  1.0345 -1.3950  0.8056
 5194TIP3   OH237140   2.345   1.601   1.745  0.2275  0.7142  0.4028
 5194TIP3    H137141   2.345   1.506   1.730  1.3773  0.9491 -1.5523
 5194TIP3    H237142   2.437   1.622   1.761  0.0053  1.5220  0.6427
 5195TIP3   OH237143   2.122   5.332   0.138  0.2792 -1.0764 -0.2642
 5195TIP3    H137144   2.144   5.273   0.066 -0.6613  0.4867 -1.9223
 5195TIP3    H237145   2.135   5.419   0.102 -0.3948 -0.2445  1.4172
 5196TIP3   OH237146   0.945   4.420   1.298  0.0628  0.0301  0.1236
 5196TIP3    H137147   0.907   4.351   1.243  0.4306 -0.4481  0.4551
 5196TIP3    H237148   1.025   4.380   1.333  1.0318  1.1181 -0.7907
 5197TIP3   OH237149   6.575   1.902   3.112  0.2776 -0.4169  0.4368
 5197TIP3    H137150   6.504   1.839   3.111 -0.1921  0.0933  1.0149
 5197TIP3    H237151   6.592   1.921   3.020  0.3626 -1.3077  0.2629
 5198TIP3   OH237152   3.784   0.887   0.277 -0.6177  0.1486  0.0895
 5198TIP3    H137153   3.755   0.814   0.331  0.8962  1.3372  2.7000
 5198TIP3    H237154   3.738   0.963   0.312  0.2519  0.9263 -0.3977
 5199TIP3   OH237155   4.072   3.641   0.741  0.4225  0.2154  0.3855
 5199TIP3    H137156   3.980   3.642   0.715  0.4090  0.2820  0.4367
 5199TIP3    H237157   4.120   3.648   0.658  0.3845 -0.0825  0.3382
 5200TIP3   OH237158   0.653   0.958   3.064 -0.0231  0.1884  0.1886
 5200TIP3    H137159   0.721   0.902   3.029 -0.5748 -0.4126  0.0584
 5200TIP3    H237160   0.665   0.954   3.159  0.8643  1.0501  0.1333
 5201TIP3   OH237161   4.381   0.587   7.738  0.2575  0.1581 -0.1150
 5201TIP3    H137162   4.446   0.578   7.668  1.1856 -0.9567  0.8483
 5201TIP3    H237163   4.340   0.672   7.722  1.8438  0.8154 -0.8473
 5202TIP3   OH237164   4.172   4.047   3.428 -0.2963  0.3226  0.1673
 5202TIP3    H137165   4.242   4.081   3.483 -1.3167  1.3083  0.9024
 5202TIP3    H237166   4.102   4.023   3.489 -0.2571 -1.6183 -0.4616
 5203TIP3   OH237167   1.323   1.293   7.470  0.1439  0.2879  0.3734
 5203TIP3    H137168   1.298   1.207   7.504  0.0745 -0.3925 -1.2937
 5203TIP3    H237169   1.297   1.355   7.539 -0.4182 -0.9579  1.3204
 5204TIP3   OH237170   3.765   0.404   8.380 -0.1727  0.2095  0.2816
 5204TIP3    H137171   3.780   0.479   8.322  0.7141 -0.8870 -0.9603
 5204TIP3    H237172   3.746   0.444   8.465 -2.1794  1.8868 -0.8611
 5205TIP3   OH237173   1.521   0.118   0.267 -0.0111 -0.1046  0.0130
 5205TIP3    H137174   1.505   0.117   0.361 -1.4883  1.3374 -0.1796
 5205TIP3    H237175   1.613   0.093   0.258  0.1545 -0.2554  1.8336
 5206TIP3   OH237176   6.557   5.271   3.338  0.5213 -0.4670  0.5944
 5206TIP3    H137177   6.536   5.185   3.302  2.0470 -0.6217 -0.0209
 5206TIP3    H237178   6.641   5.294   3.297 -1.0342  2.4783 -1.3116
 5207TIP3   OH237179   2.072   4.308   0.005  0.0658  0.4547 -0.2409
 5207TIP3    H137180   2.138   4.322   0.073  1.6557 -0.6811 -1.4735
 5207TIP3    H237181   2.114   4.248  -0.057 -2.0550 -0.1319 -1.2023
 5208TIP3   OH237182   5.700   4.993   8.268 -0.4057 -0.0466 -0.2681
 5208TIP3    H137183   5.726   5.084   8.251 -0.2294 -0.1077 -0.3239
 5208TIP3    H237184   5.625   5.001   8.327 -0.0983  0.1234  0.1021
 5209TIP3   OH237185   4.069   6.396   2.934 -0.3001  0.5865  0.3647
 5209TIP3    H137186   4.126   6.444   2.994 -0.4429 -1.0075  1.8400
 5209TIP3    H237187   4.054   6.312   2.977 -0.6440 -0.5098 -1.7996
 5210TIP3   OH237188   0.648   4.815   8.672 -0.5176 -0.3071  0.0672
 5210TIP3    H137189   0.588   4.856   8.734 -0.8049 -1.3154  0.4827
 5210TIP3    H237190   0.591   4.767   8.612 -0.1376 -1.8138  0.8561
 5211TIP3   OH237191   1.401   2.641   0.409  0.1949  0.1752 -0.0973
 5211TIP3    H137192   1.420   2.547   0.409  1.7802  0.4589 -1.7387
 5211TIP3    H237193   1.483   2.683   0.432 -0.4236  1.1925  0.3416
 5212TIP3   OH237194   1.831   2.120   0.233 -0.4201 -0.5431  0.4165
 5212TIP3    H137195   1.750   2.077   0.207 -0.0662 -0.2716 -1.2647
 5212TIP3    H237196   1.898   2.054   0.223 -0.1442 -0.1634 -0.2934
 5213TIP3   OH237197   3.795   3.538   7.810  0.2501  0.0172 -0.2319
 5213TIP3    H137198   3.718   3.547   7.866  0.6439 -1.8139  0.6816
 5213TIP3    H237199   3.761   3.542   7.721 -0.8876 -0.5197  0.1584
 5214TIP3   OH237200   3.034   0.577   2.618  0.3789  0.1620  0.2911
 5214TIP3    H137201   3.083   0.563   2.699 -0.1999  1.6279  0.9250
 5214TIP3    H237202   2.969   0.644   2.640 -0.3829 -0.0575 -1.1518
 5215TIP3   OH237203   2.186   4.803   0.629  0.0299  0.1352  0.1210
 5215TIP3    H137204   2.234   4.742   0.573  0.7316 -0.2840  1.1477
 5215TIP3    H237205   2.192   4.887   0.583  1.4034 -0.0068 -0.0031
 5216TIP3   OH237206   5.385   3.619   8.258 -0.0250 -0.1639 -0.0726
 5216TIP3    H137207   5.451   3.627   8.327  1.6741 -1.2328 -1.4759
 5216TIP3    H237208   5.398   3.696   8.202  0.8667 -0.9455 -0.9841
 5217TIP3   OH237209   4.893   4.355   0.417 -0.2344 -0.1670  0.3968
 5217TIP3    H137210   4.888   4.431   0.475 -2.2752  0.7555 -0.8925
 5217TIP3    H237211   4.963   4.377   0.356 -1.0428  0.8881 -0.1870
 5218TIP3   OH237212   1.121   2.204   8.792 -0.3870  0.0055  0.5791
 5218TIP3    H137213   1.056   2.159   8.845  0.0091 -1.5757 -0.2261
 5218TIP3    H237214   1.076   2.223   8.710 -0.0007 -0.5987  0.2252
 5219TIP3   OH237215   5.538   4.995   0.513 -0.3007 -0.4124 -0.5200
 5219TIP3    H137216   5.487   4.987   0.433 -1.3224 -0.5480  0.1176
 5219TIP3    H237217   5.599   4.922   0.511  1.4452  0.9774 -2.3443
 5220TIP3   OH237218   1.545   6.633   2.498  0.2642 -0.0863  0.4627
 5220TIP3    H137219   1.596   6.555   2.476  0.6327 -0.2643  1.8450
 5220TIP3    H237220   1.488   6.605   2.569  0.5133  0.9399  1.0793
 5221TIP3   OH237221   1.292   4.946   1.060  0.1927  0.1283 -0.0221
 5221TIP3    H137222   1.227   4.938   1.129  1.1064 -1.9740  0.6871
 5221TIP3    H237223   1.310   5.040   1.054 -2.3532  0.6906  0.2194
 5222TIP3   OH237224   3.116   0.031   1.111 -0.0515 -0.0450  0.0539
 5222TIP3    H137225   3.073  -0.046   1.074 -1.9040  1.4769 -1.1649
 5222TIP3    H237226   3.201  -0.001   1.141 -1.1578 -2.7736  0.6196
 5223TIP3   OH237227   6.650   1.964   2.293 -0.3765 -0.0004 -0.0542
 5223TIP3    H137228   6.628   2.056   2.282 -2.4424  0.0634  3.1467
 5223TIP3    H237229   6.567   1.921   2.314  0.8614 -2.0930  0.9711
 5224TIP3   OH237230   6.629   3.476   8.032 -0.2512 -0.6660 -0.3060
 5224TIP3    H137231   6.629   3.382   8.013 -0.4485 -0.6014 -0.6158
 5224TIP3    H237232   6.555   3.488   8.091  1.1625 -1.0993  1.6804
 5225TIP3   OH237233   0.590   5.099   8.270  0.6088  0.4021 -0.5539
 5225TIP3    H137234   0.535   5.107   8.348  0.9328  0.6616 -0.3490
 5225TIP3    H237235   0.609   5.006   8.262  1.5379  0.5001  0.3541
 5226TIP3   OH237236   3.973   1.388   2.692 -0.0156  0.3434  0.6093
 5226TIP3    H137237   4.068   1.386   2.702 -0.0325 -1.0846  0.6460
 5226TIP3    H237238   3.939   1.364   2.778 -0.4482  1.3057  0.7300
 5227TIP3   OH237239   2.658   1.096   1.679  0.0558 -0.1372 -0.8915
 5227TIP3    H137240   2.665   1.001   1.679  0.2460 -0.1258 -0.1941
 5227TIP3    H237241   2.689   1.123   1.765  2.4795  0.7324 -1.9342
 5228TIP3   OH237242   1.556   0.838   7.819  0.0089 -0.0349 -0.0375
 5228TIP3    H137243   1.495   0.841   7.745 -0.3497  0.6026  0.2791
 5228TIP3    H237244   1.642   0.845   7.778 -0.2117  4.7972 -0.2706
 5229TIP3   OH237245   5.726   4.360   0.404  0.6770 -0.4185  0.3988
 5229TIP3    H137246   5.638   4.381   0.373  0.6143  0.3447  1.0805
 5229TIP3    H237247   5.712   4.310   0.485  0.8678  0.3996  0.9465
 5230TIP3   OH237248   4.492   3.363   8.232 -0.4090  0.0829  0.6255
 5230TIP3    H137249   4.483   3.268   8.223 -0.5453  0.2804 -2.7307
 5230TIP3    H237250   4.406   3.397   8.208 -0.1352  1.0799  1.0187
 5231TIP3   OH237251   5.787   4.998   3.601  0.2254  0.2101  0.0611
 5231TIP3    H137252   5.800   4.940   3.526 -0.6472 -0.3583  0.3415
 5231TIP3    H237253   5.753   5.079   3.564  0.0245  0.0155 -0.1778
 5232TIP3   OH237254   3.714   6.721   8.543  0.2371 -0.2142 -0.1501
 5232TIP3    H137255   3.738   6.800   8.493 -0.2059  1.7064  2.4498
 5232TIP3    H237256   3.753   6.649   8.494  2.4427  1.8027 -1.5970
 5233TIP3   OH237257   4.257   0.567   1.462  0.4656 -0.5830 -0.0163
 5233TIP3    H137258   4.267   0.515   1.542  1.0565 -0.6560 -0.1332
 5233TIP3    H237259   4.163   0.579   1.453  0.4353  0.4381  1.3410
 5234TIP3   OH237260   6.496   3.250   3.036 -0.0493 -0.6881  0.5208
 5234TIP3    H137261   6.462   3.324   3.087  1.1357  0.2838 -0.0251
 5234TIP3    H237262   6.423   3.189   3.029 -0.9957  0.3409  1.1870
 5235TIP3   OH237263   3.720   1.318   2.078 -0.1162 -0.5326  0.0888
 5235TIP3    H137264   3.707   1.346   2.169 -0.0588 -0.4497  0.0722
 5235TIP3    H237265   3.802   1.269   2.079  0.1690 -0.0701 -0.0142
 5236TIP3   OH237266   4.672   0.062   2.334 -0.1606  0.4501  0.2848
 5236TIP3    H137267   4.649   0.013   2.413 -1.4140  2.1054  0.9928
 5236TIP3    H237268   4.766   0.047   2.322 -0.1407 -0.5497  1.5572
 5237TIP3   OH237269   0.358   0.875   2.109 -0.1636 -0.0802 -0.4295
 5237TIP3    H137270   0.373   0.791   2.152 -0.3603  0.5161  0.8396
 5237TIP3    H237271   0.322   0.932   2.178  0.0575  1.0787 -1.2343
 5238TIP3   OH237272   3.301   6.398   1.046 -0.2449  0.3144 -0.7068
 5238TIP3    H137273   3.274   6.414   1.136  0.7318  0.8055 -0.4780
 5238TIP3    H237274   3.263   6.314   1.023  1.5944 -1.0863  1.0599
 5239TIP3   OH237275   4.602   5.583   1.955 -0.1567  0.0698 -0.4008
 5239TIP3    H137276   4.633   5.656   1.902 -0.9507  0.8406  0.1666
 5239TIP3    H237277   4.641   5.506   1.915  0.1869  0.7422 -1.3955
 5240TIP3   OH237278   4.007   4.012   7.932  0.9597 -0.6346 -0.7346
 5240TIP3    H137279   4.075   4.009   7.999  2.4481 -0.8655 -2.1888
 5240TIP3    H237280   3.983   3.920   7.918 -1.1935 -0.4457  1.2030
 5241TIP3   OH237281   1.747   0.663   2.948  0.2675  0.3543 -0.5719
 5241TIP3    H137282   1.693   0.585   2.940  0.5882  0.2542 -2.0173
 5241TIP3    H237283   1.685   0.733   2.966 -0.1143 -0.0984 -0.1011
 5242TIP3   OH237284   6.418   1.428   8.521 -0.4044  0.2498  0.7035
 5242TIP3    H137285   6.340   1.481   8.534 -0.4404 -0.2715  2.9077
 5242TIP3    H237286   6.491   1.490   8.526 -0.6046  0.6231 -0.6260
 5243TIP3   OH237287   0.432   2.153   8.076  0.0122  0.4837 -0.1157
 5243TIP3    H137288   0.388   2.203   8.144  0.4960  1.3163 -0.3926
 5243TIP3    H237289   0.434   2.212   8.000 -0.1491 -0.2688 -0.7219
 5244TIP3   OH237290   0.826   0.520   2.874  0.6422 -0.7122 -0.6982
 5244TIP3    H137291   0.892   0.486   2.813  1.8209 -0.7325  0.5591
 5244TIP3    H237292   0.834   0.615   2.868  0.6430 -0.7114 -0.6822
 5245TIP3   OH237293   2.646   1.949   0.168 -0.0932  0.1779  0.4817
 5245TIP3    H137294   2.712   1.883   0.189 -1.3962 -2.0076 -1.7998
 5245TIP3    H237295   2.635   1.942   0.073 -1.0340  3.0284  0.3027
 5246TIP3   OH237296   0.197   5.858   0.039  0.6073  0.7227  0.3880
 5246TIP3    H137297   0.238   5.802  -0.027  1.2901  0.1830  1.2639
 5246TIP3    H237298   0.109   5.823   0.050  0.3543  1.0452 -0.4954
 5247TIP3   OH237299   0.245   2.136   8.851 -0.3339  0.3253 -0.3781
 5247TIP3    H137300   0.160   2.119   8.891 -1.2409  3.1720 -0.8423
 5247TIP3    H237301   0.284   2.050   8.837 -2.4927 -0.9817  1.2118
 5248TIP3   OH237302   3.403   6.487   1.334 -0.0592  0.2026  0.2256
 5248TIP3    H137303   3.389   6.393   1.342  0.0790  0.0015 -1.4807
 5248TIP3    H237304   3.483   6.504   1.385  0.4682 -0.7864 -0.2417
 5249TIP3   OH237305   4.602   3.890   8.917 -0.0751  0.1004  0.3293
 5249TIP3    H137306   4.605   3.936   9.001 -3.2139 -0.7777  1.0631
 5249TIP3    H237307   4.508   3.877   8.900  0.5216 -1.5357 -2.3185
 5250TIP3   OH237308   0.195   1.168   1.348  0.9136  0.1520  0.6667
 5250TIP3    H137309   0.250   1.105   1.395  0.7465 -0.3732  0.1724
 5250TIP3    H237310   0.231   1.167   1.259  0.2658 -0.0050  0.4056
 5251TIP3   OH237311   4.510   0.821   8.869  0.0499  0.2284  0.2864
 5251TIP3    H137312   4.487   0.769   8.792 -2.5657  0.6168  0.7188
 5251TIP3    H237313   4.444   0.799   8.934  0.8256  1.6373  1.6327
 5252TIP3   OH237314   2.458   1.971   8.306 -0.2734 -0.1282 -0.0004
 5252TIP3    H137315   2.416   2.022   8.236  0.8737 -0.0705 -0.6648
 5252TIP3    H237316   2.550   1.965   8.280 -0.0969 -1.2918  0.8094
 5253TIP3   OH237317   3.257   3.083   7.930  0.8886  0.3537 -0.7006
 5253TIP3    H137318   3.233   3.167   7.892 -0.4414 -0.3337 -1.4328
 5253TIP3    H237319   3.291   3.104   8.016  0.0263  1.5934 -0.6491
 5254TIP3   OH237320   3.372   5.694   2.368  0.1147  0.3434 -0.4551
 5254TIP3    H137321   3.276   5.690   2.361 -0.1590 -0.3449  2.3589
 5254TIP3    H237322   3.399   5.602   2.362  0.3351  0.2966  0.9300
 5255TIP3   OH237323   3.565   2.179   7.201 -0.0773  0.0490 -0.6050
 5255TIP3    H137324   3.561   2.151   7.292 -1.2021 -0.3700 -0.7669
 5255TIP3    H237325   3.655   2.162   7.174  0.1806 -0.1149  0.3330
 5256TIP3   OH237326   4.879   0.252   2.837  0.1421 -0.6458 -0.0358
 5256TIP3    H137327   4.895   0.338   2.799  0.0338 -0.1880  0.9332
 5256TIP3    H237328   4.917   0.256   2.924  1.3092 -2.0346 -0.4339
 5257TIP3   OH237329   6.569   4.582   1.660 -0.0102  0.5869 -0.3156
 5257TIP3    H137330   6.620   4.538   1.728 -0.1809 -1.1124 -1.2341
 5257TIP3    H237331   6.494   4.619   1.707  0.2996  0.1526  0.5452
 5258TIP3   OH237332   5.622   6.631   0.791  0.3640  1.0558  0.1101
 5258TIP3    H137333   5.583   6.580   0.720 -0.9204  0.0049  1.5061
 5258TIP3    H237334   5.565   6.706   0.801  1.4358  2.0691 -0.9617
 5259TIP3   OH237335   3.173   5.702   0.222 -0.3311  0.6941  0.0177
 5259TIP3    H137336   3.175   5.670   0.132 -1.0358  1.4161 -0.2660
 5259TIP3    H237337   3.087   5.743   0.231 -1.0355 -0.9478  1.5815
 5260TIP3   OH237338   5.869   0.530   1.240 -0.1174  0.0881 -0.2052
 5260TIP3    H137339   5.781   0.567   1.229  0.3966  1.3565 -0.3159
 5260TIP3    H237340   5.866   0.447   1.193 -0.5375  1.3063 -2.4853
 5261TIP3   OH237341   3.070   2.747   3.452  0.1984  0.1863  0.9270
 5261TIP3    H137342   3.020   2.754   3.370  0.5335  2.0986  0.8365
 5261TIP3    H237343   3.011   2.701   3.512 -0.8465  0.5315  0.2074
 5262TIP3   OH237344   5.700   5.142   7.069  0.1324 -0.5413 -0.3468
 5262TIP3    H137345   5.711   5.206   6.998 -0.9280 -1.2183 -1.1482
 5262TIP3    H237346   5.611   5.157   7.101  0.2934 -0.8419  0.2606
 5263TIP3   OH237347   1.366   0.565   8.748  0.0152 -0.5782 -0.2587
 5263TIP3    H137348   1.371   0.473   8.776  0.5280 -0.4734 -0.0129
 5263TIP3    H237349   1.449   0.582   8.704 -0.4280 -0.4817 -1.0983
 5264TIP3   OH237350   5.577   0.004   2.338 -0.2531 -0.2172 -0.0957
 5264TIP3    H137351   5.489   0.041   2.332 -1.0073 -1.3688  2.4770
 5264TIP3    H237352   5.563  -0.085   2.368  1.7599 -1.0577 -1.4262
 5265TIP3   OH237353   2.008   0.004   0.842 -0.3615  0.2962  0.0842
 5265TIP3    H137354   1.914  -0.006   0.858  0.0392  0.0424  2.7722
 5265TIP3    H237355   2.029   0.091   0.876  0.5677 -0.1642  0.7427
 5266TIP3   OH237356   1.467   4.782   0.512  0.0885 -0.4111  0.1834
 5266TIP3    H137357   1.490   4.808   0.423  0.4012  0.7329  0.5938
 5266TIP3    H237358   1.550   4.756   0.552  0.0442 -0.3041  0.3448
 5267TIP3   OH237359   6.282   6.198   0.534 -0.0177  0.4927  0.0798
 5267TIP3    H137360   6.345   6.230   0.598  1.1889  1.6252 -1.5672
 5267TIP3    H237361   6.217   6.268   0.526 -0.5508  0.0582  0.5458
 5268TIP3   OH237362   2.310   2.961   8.882 -0.0968 -0.1073  0.0521
 5268TIP3    H137363   2.278   3.028   8.821 -0.2842  0.4805  0.7946
 5268TIP3    H237364   2.405   2.964   8.874 -0.1175  0.0047 -0.1625
 5269TIP3   OH237365   5.272   5.019   8.599  0.1647  0.3452 -0.6015
 5269TIP3    H137366   5.241   4.965   8.672  0.0054  0.1788 -0.7922
 5269TIP3    H237367   5.200   5.017   8.536  0.1127  0.8710 -0.5615
 5270TIP3   OH237368   3.712   5.638   1.414  0.4475  0.5980 -0.1399
 5270TIP3    H137369   3.775   5.634   1.342 -0.3190  1.3679 -0.8892
 5270TIP3    H237370   3.644   5.575   1.389 -0.3524  1.6342 -0.6420
 5271TIP3   OH237371   3.103   0.586   2.037 -0.3601 -0.2081 -0.3159
 5271TIP3    H137372   3.196   0.580   2.016  0.5410  2.9082  2.1260
 5271TIP3    H237373   3.100   0.591   2.133 -2.7883  2.0589 -0.3988
 5272TIP3   OH237374   3.379   4.135   0.073 -0.3472 -0.4174 -0.0638
 5272TIP3    H137375   3.343   4.179  -0.004 -1.9713  1.4491  1.6514
 5272TIP3    H237376   3.313   4.071   0.097 -0.3045 -0.3206  0.3174
 5273TIP3   OH237377   2.121   1.521   1.432  1.0545 -0.0767 -0.2205
 5273TIP3    H137378   2.098   1.512   1.524  2.2318 -0.8361  0.0200
 5273TIP3    H237379   2.183   1.594   1.429  0.1384  0.7243 -0.6043
 5274TIP3   OH237380   0.676   2.323   2.820  0.0976  0.8452  0.3887
 5274TIP3    H137381   0.621   2.288   2.749 -0.3439  0.6590  0.8138
 5274TIP3    H237382   0.666   2.418   2.814  0.7779  0.8855 -0.3569
 5275TIP3   OH237383   3.668   3.686   8.258  0.5666 -0.0746  0.6352
 5275TIP3    H137384   3.725   3.759   8.235  0.8119 -0.7401 -1.0219
 5275TIP3    H237385   3.582   3.726   8.270  0.4195  0.3968 -1.4752
 5276TIP3   OH237386   3.401   2.058   0.723  0.0914  0.5627 -0.1050
 5276TIP3    H137387   3.443   1.979   0.757  0.3231 -0.2843 -2.2025
 5276TIP3    H237388   3.473   2.120   0.711  0.2149  0.3862 -0.2931
 5277TIP3   OH237389   6.117   5.978   0.866  0.3518  0.5290  0.7794
 5277TIP3    H137390   6.174   6.025   0.928 -0.7737  1.3037  1.2612
 5277TIP3    H237391   6.049   5.940   0.921 -1.4728  2.4029 -0.0524
 5278TIP3   OH237392   4.411   6.364   0.185 -0.1960  0.1314  0.1888
 5278TIP3    H137393   4.393   6.349   0.092 -1.7257  1.2396  0.2680
 5278TIP3    H237394   4.402   6.278   0.225  2.3771 -0.7488 -0.9088
 5279TIP3   OH237395   2.898   5.499   8.709  0.1681  0.3673 -0.0910
 5279TIP3    H137396   2.872   5.579   8.662  1.0750  0.4736 -0.4374
 5279TIP3    H237397   2.905   5.433   8.640  1.3179  0.4771 -0.1071
 5280TIP3   OH237398   0.248   4.245   1.685 -0.2843  0.2388 -0.8179
 5280TIP3    H137399   0.340   4.222   1.672 -0.6543 -0.2404 -3.0071
 5280TIP3    H237400   0.248   4.308   1.757  1.6618 -0.3073 -0.2968
 5281TIP3   OH237401   2.551   5.100   0.181  0.2239 -0.4751 -0.5170
 5281TIP3    H137402   2.524   5.031   0.120  0.4104 -0.0531 -1.0813
 5281TIP3    H237403   2.645   5.083   0.195  0.3602 -0.1035 -0.9658
 5282TIP3   OH237404   1.442   5.029   7.306 -0.4083 -0.4953  0.5496
 5282TIP3    H137405   1.367   5.069   7.263 -1.5461 -1.1287  1.8648
 5282TIP3    H237406   1.434   4.935   7.287  1.8986 -0.3037 -1.9974
 5283TIP3   OH237407   4.917   0.004   0.339  0.1001 -0.1097 -0.1897
 5283TIP3    H137408   4.831   0.028   0.374  0.7968  1.8269  0.3534
 5283TIP3    H237409   4.911   0.023   0.245  0.1909  0.9383  0.0009
 5284TIP3   OH237410   2.752   4.383   1.458  0.4016 -0.0656  0.0849
 5284TIP3    H137411   2.837   4.413   1.490 -0.2182  0.4131  1.3695
 5284TIP3    H237412   2.738   4.299   1.501  0.3866 -0.3120 -0.4014
 5285TIP3   OH237413   0.600   2.051   2.088  0.2539  0.3584 -0.4678
 5285TIP3    H137414   0.590   1.968   2.134  0.3623 -0.0565 -1.1896
 5285TIP3    H237415   0.540   2.111   2.133 -1.0663 -0.5370 -0.9828
 5286TIP3   OH237416   3.927   4.549   2.834  0.0845  0.1839  0.1936
 5286TIP3    H137417   3.904   4.460   2.863 -2.3226  0.8240  0.4441
 5286TIP3    H237418   3.900   4.605   2.906 -0.2127  1.2901 -0.7583
 5287TIP3   OH237419   4.747   4.036   8.340 -0.8098 -0.2269 -0.0570
 5287TIP3    H137420   4.695   4.109   8.372  2.1002  1.6570  0.8213
 5287TIP3    H237421   4.781   3.994   8.420  0.3868 -0.2558 -0.5510
 5288TIP3   OH237422   4.060   4.553   1.020  0.6049  0.5918 -0.4275
 5288TIP3    H137423   3.996   4.608   0.976  1.4046  1.6642 -0.2676
 5288TIP3    H237424   4.145   4.591   0.998  1.1535 -0.3238  0.0251
 5289TIP3   OH237425   5.848   2.236   0.635 -0.2514 -0.2704 -0.4883
 5289TIP3    H137426   5.911   2.231   0.708  0.4890  0.6781 -1.0389
 5289TIP3    H237427   5.762   2.235   0.677  0.0368 -2.6492  0.2417
 5290TIP3   OH237428   0.887   0.016   1.229  0.7010 -0.6010 -0.2146
 5290TIP3    H137429   0.946  -0.026   1.166  0.8748 -1.8716  0.7580
 5290TIP3    H237430   0.815  -0.047   1.240  1.1013 -0.8065  1.4804
 5291TIP3   OH237431   3.225   4.396   1.700 -0.4282 -0.1499  0.0734
 5291TIP3    H137432   3.268   4.443   1.629  2.3436  1.1692  2.3986
 5291TIP3    H237433   3.297   4.357   1.751 -2.1894 -0.6070  2.4296
 5292TIP3   OH237434   2.955   1.572   1.166  0.1744 -0.2654 -0.1872
 5292TIP3    H137435   2.883   1.563   1.103  0.7451 -0.3006 -0.8399
 5292TIP3    H237436   2.944   1.660   1.202  0.9805  0.5360 -1.7789
 5293TIP3   OH237437   5.023   2.811   2.674 -0.0835  0.0867  0.0728
 5293TIP3    H137438   5.081   2.874   2.718  0.3311  1.2898 -2.0323
 5293TIP3    H237439   5.070   2.788   2.594 -0.4379 -2.6393  0.5581
 5294TIP3   OH237440   4.878   0.032   2.673 -0.2647 -0.2290  0.1311
 5294TIP3    H137441   4.860   0.096   2.741  1.2144 -0.8285  1.1325
 5294TIP3    H237442   4.794  -0.014   2.661 -1.9984  3.0633 -2.0550
 5295TIP3   OH237443   4.704   6.643   8.142  0.1258 -0.4515  0.5717
 5295TIP3    H137444   4.663   6.712   8.091  0.7967  0.0649  0.7238
 5295TIP3    H237445   4.634   6.610   8.198 -0.4799 -0.6630 -0.2911
 5296TIP3   OH237446   1.922   0.763   8.614 -0.2957  0.6496 -0.2181
 5296TIP3    H137447   1.973   0.828   8.567 -0.9602  0.9016 -0.6022
 5296TIP3    H237448   1.833   0.772   8.580 -0.2202 -1.1047 -0.9717
 5297TIP3   OH237449   1.097   3.639   1.119 -0.5697  0.0015  0.1586
 5297TIP3    H137450   1.048   3.576   1.066 -2.7039  2.3465 -0.8668
 5297TIP3    H237451   1.177   3.656   1.069 -1.0900 -0.1600 -0.7462
 5298TIP3   OH237452   1.223   6.543   1.336  0.5459 -0.1745  0.0172
 5298TIP3    H137453   1.288   6.507   1.396  0.6959 -1.3260 -0.8171
 5298TIP3    H237454   1.272   6.560   1.256 -0.4257 -2.3374 -1.0878
 5299TIP3   OH237455   6.647   4.998   8.486 -0.6504 -0.1598  0.3720
 5299TIP3    H137456   6.625   5.088   8.509 -2.1547 -0.1739 -0.8492
 5299TIP3    H237457   6.622   4.947   8.563  0.5154  0.4602  1.1996
 5300TIP3   OH237458   0.038   2.784   0.205  0.3858 -0.1391  0.4384
 5300TIP3    H137459   0.120   2.742   0.231 -0.7103 -1.8973  1.2370
 5300TIP3    H237460   0.003   2.728   0.136  1.4087  2.4311 -2.3936
 5301TIP3   OH237461   0.376   3.813   0.727 -1.1652 -0.2731 -0.2891
 5301TIP3    H137462   0.355   3.722   0.704 -1.7385 -0.4571  0.8652
 5301TIP3    H237463   0.301   3.864   0.694 -1.2226 -0.3274 -0.2442
 5302TIP3   OH237464   3.179   0.567   2.914  0.2836  0.2131 -0.3787
 5302TIP3    H137465   3.168   0.484   2.869  2.0183 -0.2887  0.0582
 5302TIP3    H237466   3.130   0.558   2.995 -0.3344 -0.0078 -0.7735
 5303TIP3   OH237467   0.254   3.365   8.909  0.8148 -0.4500  0.0333
 5303TIP3    H137468   0.302   3.287   8.881 -0.6498 -1.6107  0.6426
 5303TIP3    H237469   0.205   3.337   8.986 -0.1647  0.9177 -0.0608
 5304TIP3   OH237470   6.478   3.153   0.746 -0.4921 -0.2102  0.0864
 5304TIP3    H137471   6.388   3.137   0.717 -0.4672  1.8084 -1.2953
 5304TIP3    H237472   6.526   3.172   0.665  0.6963  0.8314  0.9930
 5305TIP3   OH237473   5.311   0.295   1.259 -0.3433  0.3708  0.5277
 5305TIP3    H137474   5.267   0.248   1.187 -1.5357  0.9072  0.8776
 5305TIP3    H237475   5.386   0.337   1.218 -0.6201  0.1072 -0.2729
 5306TIP3   OH237476   6.403   4.660   8.272 -0.1090  0.1186  0.3041
 5306TIP3    H137477   6.398   4.571   8.306 -1.6828 -0.4426 -1.2468
 5306TIP3    H237478   6.467   4.655   8.200 -2.2241 -0.5136 -1.6622
 5307TIP3   OH237479   5.029   4.485   7.917 -0.2666  0.2669  0.6283
 5307TIP3    H137480   5.116   4.504   7.882 -0.0766 -0.8959  0.4303
 5307TIP3    H237481   4.969   4.510   7.847 -0.0874  0.8608  0.6785
 5308TIP3   OH237482   4.585   0.866   0.782 -0.4718 -0.5105 -0.0865
 5308TIP3    H137483   4.598   0.794   0.720  1.0896  0.1122 -0.5278
 5308TIP3    H237484   4.540   0.933   0.731 -0.4621 -0.5461 -0.1417
 5309TIP3   OH237485   1.260   2.368   0.930 -0.2488 -0.4816  0.7328
 5309TIP3    H137486   1.229   2.284   0.963  1.7371 -1.4955  0.1410
 5309TIP3    H237487   1.187   2.428   0.947 -1.9078 -2.3855  0.7393
 5310TIP3   OH237488   3.096   5.512   3.142 -0.5104  0.3382 -0.0336
 5310TIP3    H137489   3.117   5.551   3.057 -0.2303 -1.5979 -0.9064
 5310TIP3    H237490   3.043   5.436   3.121  0.1883 -0.6208  1.4630
 5311TIP3   OH237491   5.452   5.217   7.215 -0.1200  0.5968  0.7122
 5311TIP3    H137492   5.483   5.294   7.264 -0.2430 -0.0265  1.8060
 5311TIP3    H237493   5.501   5.144   7.253  2.2749  0.4282 -2.3331
 5312TIP3   OH237494   1.570   3.453   0.660 -0.0586 -0.4011  0.1609
 5312TIP3    H137495   1.567   3.547   0.675  0.0330 -0.2103 -0.9692
 5312TIP3    H237496   1.504   3.417   0.720  0.9805  0.2104  1.7086
 5313TIP3   OH237497   1.766   3.044   1.966  0.0611 -0.1511  1.2004
 5313TIP3    H137498   1.728   3.047   1.878  0.0993  0.8416  1.2102
 5313TIP3    H237499   1.755   3.133   2.000 -0.7859 -0.7552  2.5676
 5314TIP3   OH237500   2.905   0.180   8.353  1.2021  0.3671 -0.0041
 5314TIP3    H137501   2.940   0.150   8.437 -0.2282  1.2322  0.9361
 5314TIP3    H237502   2.937   0.116   8.290  0.6841 -1.4256  1.4798
 5315TIP3   OH237503   2.521   5.472   2.764  0.3224  0.3466 -0.0610
 5315TIP3    H137504   2.460   5.542   2.739  1.1204  0.8353 -0.6580
 5315TIP3    H237505   2.531   5.420   2.685  1.4885  0.8822 -0.2856
 5316TIP3   OH237506   3.618   1.084   1.354 -0.1998  0.5657 -0.6650
 5316TIP3    H137507   3.570   1.107   1.433  0.8968 -1.0124  0.5304
 5316TIP3    H237508   3.702   1.050   1.386 -0.3620 -1.7265 -2.3807
 5317TIP3   OH237509   4.849   2.359   2.896 -0.6142 -0.2942  0.3082
 5317TIP3    H137510   4.851   2.413   2.975  1.4214 -0.4276  0.3959
 5317TIP3    H237511   4.847   2.421   2.824 -0.0492 -0.1228  0.4377
 5318TIP3   OH237512   5.331   5.862   0.305  0.5226  0.0230  0.0318
 5318TIP3    H137513   5.340   5.859   0.400 -1.4836 -0.7070  0.2527
 5318TIP3    H237514   5.346   5.772   0.276  1.2809  0.2714 -0.3731
 5319TIP3   OH237515   4.849   1.153   0.788 -0.5243 -0.4365  0.6739
 5319TIP3    H137516   4.818   1.161   0.878 -1.9346 -2.5843  0.4677
 5319TIP3    H237517   4.867   1.059   0.777  0.5074 -0.0880 -1.0209
 5320TIP3   OH237518   1.010   1.128   2.480 -0.1455  0.0396 -0.3191
 5320TIP3    H137519   0.984   1.208   2.527  1.8034  1.0444 -0.8610
 5320TIP3    H237520   1.072   1.085   2.539  1.3223  0.6384 -1.3863
 5321TIP3   OH237521   6.392   0.579   1.964  0.0330  0.3085 -0.6317
 5321TIP3    H137522   6.481   0.545   1.978 -0.4347 -1.1708 -1.0866
 5321TIP3    H237523   6.337   0.529   2.025 -0.7389 -0.0558 -1.6027
 5322TIP3   OH237524   1.475   0.143   1.528 -0.1502  0.6765  0.0207
 5322TIP3    H137525   1.388   0.104   1.520 -0.5737  1.6599 -0.3197
 5322TIP3    H237526   1.502   0.121   1.617 -0.0399 -1.0325 -0.4073
 5323TIP3   OH237527   3.303   6.292   0.298  0.6409 -0.5421 -0.2115
 5323TIP3    H137528   3.212   6.297   0.268  0.9394  0.6790 -1.0137
 5323TIP3    H237529   3.354   6.292   0.217  1.4013  0.8182  0.2358
 5324TIP3   OH237530   6.518   3.739   3.250  0.0825  0.3377 -0.5722
 5324TIP3    H137531   6.557   3.694   3.174  1.0833 -0.5276  0.4206
 5324TIP3    H237532   6.583   3.806   3.272  0.9545 -0.9331  0.9243
 5325TIP3   OH237533   0.102   0.776   2.164  0.0091 -0.0693 -0.9410
 5325TIP3    H137534   0.188   0.751   2.199  0.2296 -0.8287 -1.9733
 5325TIP3    H237535   0.112   0.768   2.069 -0.2335  2.9735 -1.3136
 5326TIP3   OH237536   0.803   6.394   7.854 -0.0913  0.2350 -0.0020
 5326TIP3    H137537   0.833   6.373   7.942  3.0196  1.6610 -0.6082
 5326TIP3    H237538   0.818   6.314   7.804  2.3602  0.6999 -0.1324
 5327TIP3   OH237539   3.283   3.932   1.794 -0.2736 -0.6593 -0.1022
 5327TIP3    H137540   3.337   3.897   1.864  2.5441 -0.5246 -2.0297
 5327TIP3    H237541   3.335   4.003   1.757 -3.1528  1.5763 -0.2201
 5328TIP3   OH237542   2.262   6.485   8.074 -0.0037 -0.1935  0.0517
 5328TIP3    H137543   2.333   6.438   8.031  0.5361 -0.1259  0.8610
 5328TIP3    H237544   2.236   6.552   8.010  0.6275 -0.2418 -0.2659
 5329TIP3   OH237545   0.188   1.725   8.591 -0.1724 -0.4881 -0.1041
 5329TIP3    H137546   0.231   1.645   8.560 -1.4134 -1.1489 -0.1867
 5329TIP3    H237547   0.194   1.785   8.517 -1.9472 -1.6030 -1.2360
 5330TIP3   OH237548   6.549   6.209   0.950 -0.2399  0.0007  0.1340
 5330TIP3    H137549   6.537   6.122   0.987  1.5180  0.3664  1.7505
 5330TIP3    H237550   6.548   6.267   1.026  0.9699  1.1023 -0.6596
 5331TIP3   OH237551   5.613   4.469   2.956 -0.7664  0.0018  0.3659
 5331TIP3    H137552   5.552   4.400   2.982  0.5295 -0.7399  1.6324
 5331TIP3    H237553   5.640   4.509   3.039 -1.6470  2.2165 -0.3484
 5332TIP3   OH237554   1.819   4.500   2.578  0.0040 -0.7302 -0.2469
 5332TIP3    H137555   1.791   4.435   2.514  1.0879  0.4376 -1.9977
 5332TIP3    H237556   1.802   4.459   2.663 -1.1240 -2.4959 -1.2606
 5333TIP3   OH237557   4.137   1.338   7.462  0.1548 -0.2778 -0.7684
 5333TIP3    H137558   4.050   1.351   7.423 -0.6615 -0.6090  0.8356
 5333TIP3    H237559   4.135   1.249   7.496  1.1155 -0.2738 -0.6645
 5334TIP3   OH237560   2.122   4.309   2.056  0.1810 -0.2174 -0.0605
 5334TIP3    H137561   2.187   4.340   1.992  1.4099  0.6918  1.5449
 5334TIP3    H237562   2.043   4.360   2.037  0.5651  0.1279 -0.7632
 5335TIP3   OH237563   6.006   0.832   8.240  0.8653 -0.6861 -0.3395
 5335TIP3    H137564   6.049   0.819   8.325 -0.3857  1.6260  0.7356
 5335TIP3    H237565   6.079   0.846   8.179  1.7635  0.3023  0.8916
 5336TIP3   OH237566   2.232   3.469   7.671  0.6070 -0.0068  0.1240
 5336TIP3    H137567   2.216   3.531   7.600  3.8301  1.2272  0.3387
 5336TIP3    H237568   2.253   3.387   7.627  0.5713  0.2002 -0.2831
 5337TIP3   OH237569   0.625   4.653   1.970 -0.0107 -0.3307 -0.4505
 5337TIP3    H137570   0.569   4.586   2.010 -1.0120 -0.0058 -1.2732
 5337TIP3    H237571   0.584   4.672   1.886  0.9064  0.4955 -0.7353
 5338TIP3   OH237572   4.484   6.409   1.175 -0.2253  0.0416 -0.0789
 5338TIP3    H137573   4.576   6.435   1.169  0.2643 -1.4714  0.3813
 5338TIP3    H237574   4.461   6.378   1.088 -0.6301  1.3254 -0.4630
 5339TIP3   OH237575   2.034   0.034   2.513 -0.1925  0.1864 -0.4290
 5339TIP3    H137576   2.009   0.127   2.511  0.5236  0.3670 -1.6510
 5339TIP3    H237577   2.095   0.024   2.440  1.2328 -0.8389  0.8545
 5340TIP3   OH237578   3.410   2.289   8.521 -0.0123  0.5965  0.2638
 5340TIP3    H137579   3.428   2.345   8.446  1.3925 -0.7724 -0.4792
 5340TIP3    H237580   3.493   2.244   8.537 -0.7392 -0.2977  1.6513
 5341TIP3   OH237581   2.500   0.369   2.899  0.1814 -0.5381  0.2246
 5341TIP3    H137582   2.566   0.427   2.862 -0.7425 -0.2906 -1.1323
 5341TIP3    H237583   2.496   0.392   2.992 -0.3086  1.7551 -0.3031
 5342TIP3   OH237584   3.569   6.364   2.042  0.1924 -0.7446  0.1852
 5342TIP3    H137585   3.588   6.303   2.114  2.1168 -1.2458 -0.6829
 5342TIP3    H237586   3.655   6.396   2.014 -0.4006 -1.2883 -2.5201
 5343TIP3   OH237587   1.410   3.319   8.798 -0.6126 -0.0172  0.0882
 5343TIP3    H137588   1.459   3.240   8.821  1.3959  1.3561  0.8059
 5343TIP3    H237589   1.399   3.313   8.703 -0.8553 -1.3433  0.1826
 5344TIP3   OH237590   3.983   0.608   1.440  0.1378 -0.4772 -0.1327
 5344TIP3    H137591   3.981   0.585   1.347  0.1733 -2.3476  0.3032
 5344TIP3    H237592   3.895   0.587   1.472 -0.6893  2.4530 -0.2033
 5345TIP3   OH237593   0.063   0.521   8.409 -0.3079 -0.3407  0.1076
 5345TIP3    H137594   0.043   0.539   8.317 -2.3377  0.2476  0.6315
 5345TIP3    H237595   0.153   0.489   8.407 -0.6446 -1.3594 -2.2053
 5346TIP3   OH237596   2.039   2.880   7.789  0.4092 -0.3041  0.3773
 5346TIP3    H137597   1.969   2.873   7.854  1.0583  0.5531  1.1962
 5346TIP3    H237598   1.993   2.879   7.705 -0.5731 -0.0058  0.8853
 5347TIP3   OH237599   0.102   0.065   0.154  0.3578  0.1404 -0.2294
 5347TIP3    H137600   0.107   0.096   0.244 -1.4800 -0.2498  0.0550
 5347TIP3    H237601   0.146  -0.020   0.155 -1.2836 -0.7565  0.7870
 5348TIP3   OH237602   0.597   1.754   2.723  0.2503 -0.1763 -0.5751
 5348TIP3    H137603   0.530   1.686   2.719 -0.4390  0.3543  1.1262
 5348TIP3    H237604   0.635   1.745   2.810  1.2711  0.5994 -0.9181
 5349TIP3   OH237605   0.381   4.022   2.642 -0.8496 -0.3847 -0.0988
 5349TIP3    H137606   0.346   4.003   2.729  0.8803  0.5496  0.8481
 5349TIP3    H237607   0.457   4.077   2.658  0.1132 -1.0168 -2.1581
 5350TIP3   OH237608   1.969   0.496   1.211 -0.2761  0.1870  0.3790
 5350TIP3    H137609   2.024   0.555   1.160 -1.0952  0.2135 -0.5114
 5350TIP3    H237610   2.016   0.483   1.293  1.0250  0.2396 -0.3422
 5351TIP3   OH237611   1.493   1.950   1.798 -0.2832 -0.4488  0.6684
 5351TIP3    H137612   1.484   1.858   1.825  1.0784 -1.0677 -0.8336
 5351TIP3    H237613   1.403   1.981   1.789 -0.7722 -1.6464  1.1517
 5352TIP3   OH237614   4.124   0.752   1.714 -0.2837  0.0776 -0.3204
 5352TIP3    H137615   4.039   0.708   1.710 -0.3684  0.2716 -0.7093
 5352TIP3    H237616   4.187   0.684   1.689 -0.3427 -0.0104 -0.2328
 5353TIP3   OH237617   0.836   3.329   7.305  0.1424  0.1009  0.6582
 5353TIP3    H137618   0.821   3.324   7.211  1.1552 -1.6439  0.5394
 5353TIP3    H237619   0.833   3.422   7.326 -0.0264  0.5118 -1.1118
 5354TIP3   OH237620   4.483   2.967   1.885 -0.4615 -0.5906 -0.2912
 5354TIP3    H137621   4.446   3.054   1.898 -0.4511 -0.7600  1.0431
 5354TIP3    H237622   4.578   2.979   1.890 -0.4724 -0.7423  0.5072
 5355TIP3   OH237623   1.044   4.711   0.808 -0.1882  0.0963  0.3698
 5355TIP3    H137624   1.014   4.668   0.728  0.4968 -3.0231  1.6348
 5355TIP3    H237625   0.964   4.742   0.850 -0.6609  0.5956 -0.8608
 5356TIP3   OH237626   3.188   4.052   1.233 -0.2151 -0.3354 -0.0226
 5356TIP3    H137627   3.215   4.040   1.142  0.9880 -0.5280  0.3474
 5356TIP3    H237628   3.135   3.975   1.253  0.6213 -0.9570 -0.1675
 5357TIP3   OH237629   2.787   4.388   0.901 -0.1229  0.7547 -0.0223
 5357TIP3    H137630   2.786   4.326   0.974  0.9035 -0.8665 -1.3250
 5357TIP3    H237631   2.714   4.361   0.846  1.4451 -0.6093 -1.5646
 5358TIP3   OH237632   1.682   5.851   1.470  0.0725 -0.0534  0.2381
 5358TIP3    H137633   1.736   5.772   1.472 -1.3137 -1.0485  1.9474
 5358TIP3    H237634   1.709   5.897   1.391  1.3280 -1.9691 -0.5228
 5359TIP3   OH237635   5.643   3.721   0.198 -0.1228 -0.2246  0.0197
 5359TIP3    H137636   5.733   3.730   0.227 -0.8653  0.5314  2.3526
 5359TIP3    H237637   5.617   3.810   0.173 -0.9470  0.1334  1.9378
 5360TIP3   OH237638   5.345   2.211   1.407  0.1340 -0.2730 -0.6068
 5360TIP3    H137639   5.387   2.285   1.450  1.1123 -0.6502 -0.8710
 5360TIP3    H237640   5.251   2.225   1.420  0.3367  0.5981  0.0043
 5361TIP3   OH237641   4.504   3.011   8.404  0.2344  0.4170  0.4156
 5361TIP3    H137642   4.439   3.011   8.474  0.3703  2.0440  0.5942
 5361TIP3    H237643   4.574   2.955   8.436 -0.3829 -0.0824  0.9125
 5362TIP3   OH237644   3.090   0.406   8.615  0.0145  0.6521 -0.3501
 5362TIP3    H137645   3.015   0.465   8.624  1.5834  2.6956  0.3762
 5362TIP3    H237646   3.152   0.455   8.560  0.9293 -0.8247 -0.6802
 5363TIP3   OH237647   5.668   2.185   8.919 -0.4490  0.4292  0.2413
 5363TIP3    H137648   5.579   2.148   8.924  0.3926 -1.7727  0.1245
 5363TIP3    H237649   5.685   2.219   9.006 -2.3345  3.4073 -0.3854
 5364TIP3   OH237650   3.217   0.667   7.763  0.2096  0.0022 -0.4196
 5364TIP3    H137651   3.126   0.660   7.732  0.0580 -0.8802  0.1878
 5364TIP3    H237652   3.269   0.629   7.692  0.1372  0.6941 -0.8591
 5365TIP3   OH237653   0.645   5.332   8.151  0.1153  0.4189  0.5151
 5365TIP3    H137654   0.556   5.368   8.152 -0.1720 -0.2380 -0.0468
 5365TIP3    H237655   0.637   5.248   8.197  0.3943  0.2532  0.2630
 5366TIP3   OH237656   3.736   5.733   8.764 -0.1528 -0.1243  0.2728
 5366TIP3    H137657   3.699   5.644   8.765  0.1102 -0.2322  0.5757
 5366TIP3    H237658   3.746   5.756   8.857 -1.7356  0.8663  0.2374
 5367TIP3   OH237659   5.886   1.339   2.609 -0.2192 -0.0883  0.1345
 5367TIP3    H137660   5.917   1.265   2.556 -2.2404 -1.2886  0.4964
 5367TIP3    H237661   5.837   1.298   2.680 -0.3916  1.5912  1.0229
 5368TIP3   OH237662   1.679   0.869   0.401  0.0325  0.7781 -0.7036
 5368TIP3    H137663   1.654   0.959   0.425 -1.3508  0.4950 -0.9796
 5368TIP3    H237664   1.605   0.837   0.349 -0.0334 -0.9279  0.3728
 5369TIP3   OH237665   3.584   5.313   2.642 -0.5999 -0.1126 -0.3322
 5369TIP3    H137666   3.537   5.345   2.565 -1.0357 -0.4222 -0.1977
 5369TIP3    H237667   3.527   5.333   2.716 -1.3297 -2.0000 -0.3309
 5370TIP3   OH237668   1.487   3.790   8.019 -0.1292 -0.6038  0.0772
 5370TIP3    H137669   1.404   3.808   8.062  0.2876 -1.5995  1.3559
 5370TIP3    H237670   1.552   3.795   8.089  0.5593 -2.4318 -0.3752
 5371TIP3   OH237671   0.855   5.561   0.386 -0.0454 -0.5309 -0.9260
 5371TIP3    H137672   0.839   5.562   0.480 -0.5523 -0.2309 -1.0130
 5371TIP3    H237673   0.776   5.521   0.348 -0.3264  0.3514 -1.3059
 5372TIP3   OH237674   6.349   1.090   2.568  0.1417 -0.7213 -0.3483
 5372TIP3    H137675   6.394   1.008   2.548 -0.3231 -0.6869 -1.6150
 5372TIP3    H237676   6.400   1.157   2.521 -1.4129 -0.7276 -2.1370
 5373TIP3   OH237677   0.351   3.324   1.631  0.0815  0.4308  0.1284
 5373TIP3    H137678   0.287   3.379   1.675 -0.5540 -0.3135  0.1421
 5373TIP3    H237679   0.329   3.330   1.538  1.9697  2.7273 -0.2897
 5374TIP3   OH237680   5.382   3.347   2.272 -0.0098  0.0769  0.2093
 5374TIP3    H137681   5.403   3.311   2.185  2.3051 -1.2235  1.2123
 5374TIP3    H237682   5.370   3.269   2.327 -0.2080  0.8699  1.3158
 5375TIP3   OH237683   5.845   5.846   1.615  0.2636  0.0956  0.6934
 5375TIP3    H137684   5.754   5.815   1.611  0.4712 -0.3841 -1.5240
 5375TIP3    H237685   5.841   5.924   1.671 -1.4136 -0.1744  1.0123
 5376TIP3   OH237686   2.334   5.245   1.559  0.4951  0.2027 -0.5051
 5376TIP3    H137687   2.256   5.189   1.557 -0.3019  1.2922 -0.3216
 5376TIP3    H237688   2.300   5.334   1.568  1.8271  0.5587  1.4205
 5377TIP3   OH237689   4.687   2.373   2.230 -0.1092  0.6836  0.0764
 5377TIP3    H137690   4.689   2.343   2.321 -0.0227  1.4016  0.3183
 5377TIP3    H237691   4.622   2.443   2.229 -1.2259 -0.3433 -0.7491
 5378TIP3   OH237692   4.320   3.682   2.531 -0.0033 -0.2265  0.1738
 5378TIP3    H137693   4.260   3.611   2.507 -3.1146  2.5782 -1.0372
 5378TIP3    H237694   4.297   3.702   2.622 -1.0889  0.9712 -0.3485
 5379TIP3   OH237695   3.477   1.727   0.516  0.1138  0.1651  0.3962
 5379TIP3    H137696   3.468   1.788   0.443  0.5087 -1.7299 -1.3376
 5379TIP3    H237697   3.394   1.733   0.563 -0.3471  1.0790 -0.5068
 5380TIP3   OH237698   0.765   2.090   0.526  0.3183 -0.0233 -0.2457
 5380TIP3    H137699   0.741   2.122   0.613 -0.5175 -0.1323 -0.4226
 5380TIP3    H237700   0.683   2.092   0.477  0.5850 -0.9065 -0.7421
 5381TIP3   OH237701   1.300   3.360   8.051  0.6663 -0.1417 -0.1928
 5381TIP3    H137702   1.283   3.322   7.965 -0.8946  1.5554 -0.6989
 5381TIP3    H237703   1.238   3.316   8.109 -0.9978  1.3289 -0.7402
 5382TIP3   OH237704   4.317   1.702   3.020 -0.2364 -0.3081  0.2395
 5382TIP3    H137705   4.290   1.787   3.054 -0.9320 -1.8793  4.0964
 5382TIP3    H237706   4.412   1.704   3.023 -0.2287  0.5108 -0.2746
 5383TIP3   OH237707   3.035   3.882   1.655 -0.0358  0.2191  0.1200
 5383TIP3    H137708   2.978   3.958   1.666 -0.5657  0.0358 -1.1955
 5383TIP3    H237709   3.122   3.914   1.681 -0.6560  0.5415  1.9951
 5384TIP3   OH237710   0.566   3.773   2.720 -0.0892 -0.3803  0.0812
 5384TIP3    H137711   0.496   3.802   2.661  0.0487 -2.4394 -1.1708
 5384TIP3    H237712   0.639   3.833   2.702  0.2135 -1.4117 -2.4558
 5385TIP3   OH237713   1.966   1.942   7.983  0.0235 -0.2215  0.1284
 5385TIP3    H137714   1.929   1.854   7.988 -0.6332  0.0381 -0.0179
 5385TIP3    H237715   1.960   1.976   8.072 -1.3024  0.2864 -0.1225
 5386TIP3   OH237716   3.618   4.297   0.755  0.4569  0.6219 -0.4873
 5386TIP3    H137717   3.656   4.335   0.675  1.1907 -1.5401 -1.2433
 5386TIP3    H237718   3.542   4.352   0.774 -0.0350  0.9111 -2.9601
 5387TIP3   OH237719   6.607   1.220   1.247  0.2155 -0.7048 -0.5109
 5387TIP3    H137720   6.676   1.191   1.308  0.7795  1.7699  0.1432
 5387TIP3    H237721   6.536   1.250   1.303  1.0813  2.4417 -0.8860
 5388TIP3   OH237722   5.332   6.256   7.640 -0.7347  0.5095  0.0982
 5388TIP3    H137723   5.240   6.229   7.644 -0.6514  0.2459  0.3409
 5388TIP3    H237724   5.331   6.348   7.666 -1.0743  0.8746 -1.1417
 5389TIP3   OH237725   1.957   1.897   0.177  0.4779  0.0059  0.2186
 5389TIP3    H137726   1.947   1.930   0.088  0.8201  2.9278  1.1406
 5389TIP3    H237727   2.036   1.843   0.174  0.0149 -0.6588 -1.3715
 5390TIP3   OH237728   2.308   0.223   3.029  0.2368  0.3071  0.6024
 5390TIP3    H137729   2.236   0.209   2.968  1.1175  0.7911 -0.5972
 5390TIP3    H237730   2.373   0.272   2.978  0.9778  0.7878  1.9582
 5391TIP3   OH237731   1.502   1.835   1.495 -0.3326  0.3226  0.1511
 5391TIP3    H137732   1.532   1.792   1.415 -2.7300  0.6236 -0.9714
 5391TIP3    H237733   1.561   1.910   1.505  0.9452 -0.5631 -0.4489
 5392TIP3   OH237734   1.479   5.982   8.007  0.1836  0.4399  0.0521
 5392TIP3    H137735   1.562   5.938   8.026  0.7357  1.1219 -0.7710
 5392TIP3    H237736   1.448   6.012   8.093  1.4618  1.3745  0.2048
 5393TIP3   OH237737   3.988   3.837   1.121 -0.1095  0.2335  0.0139
 5393TIP3    H137738   3.947   3.872   1.201 -0.8306 -0.2681 -0.1226
 5393TIP3    H237739   3.989   3.911   1.060  0.0624  0.5090  0.3490
 5394TIP3   OH237740   0.458   4.563   8.027 -0.4005 -0.2760 -0.5819
 5394TIP3    H137741   0.442   4.582   8.120 -0.4870  0.6651 -0.7799
 5394TIP3    H237742   0.552   4.544   8.022 -0.3845 -0.2773 -0.3157
 5395TIP3   OH237743   4.454   3.791   8.452  0.1019 -0.2476 -0.1403
 5395TIP3    H137744   4.466   3.753   8.365  0.8546  0.5479 -0.3899
 5395TIP3    H237745   4.389   3.860   8.440 -1.0767 -1.2285  0.2702
 5396TIP3   OH237746   1.827   4.056   1.449 -0.1930 -0.5760  0.4780
 5396TIP3    H137747   1.920   4.065   1.426  0.3698 -1.3892  2.2423
 5396TIP3    H237748   1.780   4.099   1.377  1.5041 -0.8502 -0.8576
 5397TIP3   OH237749   3.433   1.765   0.018  0.3584 -0.0974 -0.1891
 5397TIP3    H137750   3.359   1.706   0.026 -0.7535  1.1290 -0.9967
 5397TIP3    H237751   3.461   1.780   0.108  0.3339 -1.4173  0.0582
 5398TIP3   OH237752   6.346   5.414   3.393 -0.8619 -0.3308  0.6730
 5398TIP3    H137753   6.275   5.350   3.390 -0.2342 -1.1062  1.6314
 5398TIP3    H237754   6.423   5.366   3.362 -0.8306  0.6511 -0.8696
 5399TIP3   OH237755   0.716   0.475   2.559  0.2104 -0.6570 -0.2310
 5399TIP3    H137756   0.806   0.467   2.590 -0.1707 -0.3496  1.0344
 5399TIP3    H237757   0.693   0.566   2.577  0.0169 -0.3939 -1.6535
 5400TIP3   OH237758   2.038   5.204   3.081  0.1147  0.0628 -0.1058
 5400TIP3    H137759   2.016   5.111   3.084  1.9772 -0.4007  0.9781
 5400TIP3    H237760   2.108   5.210   3.016  1.0389  0.4254  0.8876
 5401TIP3   OH237761   3.989   4.982   2.276  0.0116 -0.0161  0.0749
 5401TIP3    H137762   4.039   4.976   2.358 -0.0678 -2.9649  0.0297
 5401TIP3    H237763   4.050   4.954   2.209 -0.2750  1.2409 -0.7293
 5402TIP3   OH237764   3.370   6.580   2.386 -0.3241 -0.0962 -0.0141
 5402TIP3    H137765   3.449   6.530   2.364 -0.7601 -0.1323 -1.6809
 5402TIP3    H237766   3.357   6.566   2.480  1.8076  0.1571  0.3542
 5403TIP3   OH237767   3.694   2.573   0.923  0.1130  0.7071 -0.2729
 5403TIP3    H137768   3.655   2.652   0.886 -0.3377  1.0557  0.9234
 5403TIP3    H237769   3.623   2.509   0.925 -0.2736  1.1525  1.3354
 5404TIP3   OH237770   6.753   4.128   8.108 -0.3862  0.0278 -0.1190
 5404TIP3    H137771   6.749   4.080   8.025  1.5987 -0.4897  0.0451
 5404TIP3    H237772   6.771   4.219   8.082 -1.1475  0.1407 -0.2903
 5405TIP3   OH237773   3.270   4.316   2.888 -0.3668 -0.3607 -0.5777
 5405TIP3    H137774   3.304   4.256   2.955 -0.4491  0.5924  0.3459
 5405TIP3    H237775   3.334   4.387   2.886  0.1774 -0.8532 -2.2663
 5406TIP3   OH237776   0.699   3.201   1.999 -0.0765 -0.0159  0.7891
 5406TIP3    H137777   0.666   3.233   1.915  0.2033  0.0418  0.7002
 5406TIP3    H237778   0.639   3.237   2.064 -0.5725 -0.4490  0.5791
 5407TIP3   OH237779   1.811   2.331   7.310  0.1995  0.2388  0.2313
 5407TIP3    H137780   1.820   2.285   7.394 -0.5006  2.0310  1.3544
 5407TIP3    H237781   1.881   2.397   7.311 -0.8514  1.4058  0.2292
 5408TIP3   OH237782   5.742   4.864   1.232  0.0339  0.3238 -0.9675
 5408TIP3    H137783   5.688   4.878   1.310  1.0468 -0.5612 -0.0677
 5408TIP3    H237784   5.751   4.951   1.193  1.4013  1.2434  1.2243
 5409TIP3   OH237785   0.794   2.384   2.171 -0.3972  0.2051 -0.2774
 5409TIP3    H137786   0.861   2.451   2.188  0.5826 -0.9586  0.7473
 5409TIP3    H237787   0.739   2.385   2.250  0.4270 -1.0523  0.3463
 5410TIP3   OH237788   3.378   2.032   1.918  0.1463 -0.0041 -0.4713
 5410TIP3    H137789   3.334   2.090   1.856 -0.1500  0.7906  0.4574
 5410TIP3    H237790   3.360   2.071   2.004  0.0364 -1.4103  0.1700
 5411TIP3   OH237791   5.017   3.443   1.736  0.1507  0.6433  0.0371
 5411TIP3    H137792   5.043   3.475   1.650 -2.1873  0.7901 -0.6929
 5411TIP3    H237793   4.950   3.377   1.717 -0.2539  0.5284  1.7388
 5412TIP3   OH237794   1.742   1.666   1.708 -0.3467  0.0388  0.1978
 5412TIP3    H137795   1.772   1.742   1.658  1.4031 -1.0318 -0.4716
 5412TIP3    H237796   1.756   1.592   1.650  0.1886 -1.0652  1.6692
 5413TIP3   OH237797   0.574   2.206   8.364 -0.1777  0.4806  0.1121
 5413TIP3    H137798   0.490   2.247   8.346 -0.2997  0.9935  1.6378
 5413TIP3    H237799   0.552   2.115   8.384 -0.2606  0.3918 -0.3796
 5414TIP3   OH237800   3.091   5.883   7.908  0.1697 -0.2025 -0.3583
 5414TIP3    H137801   3.076   5.966   7.862  1.8383  0.1702 -0.2968
 5414TIP3    H237802   3.040   5.891   7.989  1.1488  1.2428  0.1578
 5415TIP3   OH237803   6.566   1.185   8.550  0.0404 -0.1401  0.1151
 5415TIP3    H137804   6.550   1.273   8.518  0.1309 -0.6834 -1.5240
 5415TIP3    H237805   6.479   1.143   8.548  0.1404 -0.3463  0.0140
 5416TIP3   OH237806   3.459   5.128   8.339 -0.0572 -0.1049  0.1072
 5416TIP3    H137807   3.470   5.109   8.246  0.7238 -0.3707  0.2461
 5416TIP3    H237808   3.530   5.080   8.382 -0.3165  0.1381  0.8284
 5417TIP3   OH237809   3.673   2.521   0.132  0.0203  0.8411 -0.2812
 5417TIP3    H137810   3.709   2.438   0.101 -0.7062  0.8829 -1.2931
 5417TIP3    H237811   3.740   2.586   0.110  1.1437  0.4140  1.6112
 5418TIP3   OH237812   4.133   6.124   7.622 -0.3321 -0.0963  0.1571
 5418TIP3    H137813   4.203   6.183   7.594  0.1177 -0.3105  0.8120
 5418TIP3    H237814   4.052   6.167   7.592  0.1391 -0.9309 -2.6148
 5419TIP3   OH237815   4.512   0.727   1.106  0.2236 -0.5053  0.5145
 5419TIP3    H137816   4.479   0.769   1.186 -0.3955  0.2645 -0.1420
 5419TIP3    H237817   4.452   0.754   1.037  1.5146 -0.0836 -0.4732
 5420TIP3   OH237818   4.864   4.539   0.592  0.1222  0.5076  0.5220
 5420TIP3    H137819   4.785   4.582   0.560  0.3022  1.7526  1.7102
 5420TIP3    H237820   4.857   4.541   0.687  0.9070 -0.6636  0.6259
 5421TIP3   OH237821   2.144   2.410   8.231 -0.3703 -0.7636 -0.5423
 5421TIP3    H137822   2.135   2.505   8.233 -1.2039 -0.8362 -0.5371
 5421TIP3    H237823   2.234   2.395   8.201  0.3997  0.0386  1.2110
 5422TIP3   OH237824   2.997   2.103   7.365 -0.5271 -0.1558  0.0620
 5422TIP3    H137825   2.905   2.097   7.392 -0.4396  0.8276  0.6273
 5422TIP3    H237826   2.997   2.165   7.292 -0.3582 -0.4225 -0.1654
 5423TIP3   OH237827   4.465   1.199   1.787 -0.1985  0.2168 -0.2724
 5423TIP3    H137828   4.425   1.186   1.701 -0.8320  0.9200 -0.0924
 5423TIP3    H237829   4.505   1.286   1.782 -0.2320  0.2594  0.1461
 5424TIP3   OH237830   4.299   1.405   0.413 -0.1649 -0.2489  0.1514
 5424TIP3    H137831   4.213   1.374   0.386  0.0673 -1.6040  0.8759
 5424TIP3    H237832   4.284   1.492   0.448 -1.2712 -0.5340  0.4228
 5425TIP3   OH237833   0.723   0.299   7.563  0.1672 -0.2870  0.3428
 5425TIP3    H137834   0.653   0.289   7.629 -0.7664 -2.9604 -0.9028
 5425TIP3    H237835   0.791   0.238   7.593  1.3150  1.1347  0.6907
 5426TIP3   OH237836   6.058   4.381   1.114  0.4272 -0.4025  0.1482
 5426TIP3    H137837   6.082   4.473   1.129  1.7606 -0.7589  0.4114
 5426TIP3    H237838   6.071   4.368   1.021  1.1379 -0.5492  0.2619
 5427TIP3   OH237839   6.772   2.427   2.698  0.1534  0.3947 -0.4740
 5427TIP3    H137840   6.708   2.489   2.663 -0.6555 -0.5878 -0.7807
 5427TIP3    H237841   6.719   2.356   2.735  1.0023  0.7869  1.6560
 5428TIP3   OH237842   0.753   0.916   8.711 -0.0760  0.0097 -0.1218
 5428TIP3    H137843   0.687   0.923   8.642  0.2205 -1.1075 -0.5345
 5428TIP3    H237844   0.742   0.997   8.762 -1.1397  0.2729 -0.7229
 5429TIP3   OH237845   0.972   5.925   8.511 -0.2618  0.3736 -0.1776
 5429TIP3    H137846   1.062   5.896   8.525 -0.4163 -0.7275 -1.2744
 5429TIP3    H237847   0.920   5.870   8.569 -0.4038 -0.5044 -1.1015
 5430TIP3   OH237848   3.036   6.181   3.021 -0.4732  0.1830 -0.2747
 5430TIP3    H137849   2.969   6.142   2.965  1.5598  0.6257 -3.2615
 5430TIP3    H237850   3.049   6.269   2.985  1.3791  0.2497  0.4385
 5431TIP3   OH237851   6.424   4.111   7.415  0.1679 -0.9815 -0.1773
 5431TIP3    H137852   6.361   4.148   7.353  0.1494  0.1429  0.4812
 5431TIP3    H237853   6.444   4.024   7.380 -0.3877 -0.6583 -1.3611
 5432TIP3   OH237854   5.697   5.763   2.385  0.2063  0.2804 -0.4274
 5432TIP3    H137855   5.681   5.754   2.291 -0.3643  1.2881 -0.4373
 5432TIP3    H237856   5.792   5.755   2.394  0.5039  2.1008 -1.3507
 5433TIP3   OH237857   6.191   0.238   0.897 -0.2093 -0.1012  0.3848
 5433TIP3    H137858   6.162   0.195   0.978 -0.1394 -0.6300  0.1365
 5433TIP3    H237859   6.279   0.268   0.916 -0.8492  1.4228  1.1119
 5434TIP3   OH237860   1.677   3.895   2.839 -0.4647  0.0071  0.2054
 5434TIP3    H137861   1.748   3.955   2.815  0.6190 -1.0446  0.6764
 5434TIP3    H237862   1.660   3.915   2.931 -0.1165 -0.3604  0.3571
 5435TIP3   OH237863   6.225   0.240   7.368 -0.6515 -0.2568 -0.0945
 5435TIP3    H137864   6.248   0.243   7.275 -1.4268  0.7444 -0.2653
 5435TIP3    H237865   6.305   0.268   7.413  0.4577 -2.8422 -0.2936
 5436TIP3   OH237866   3.019   1.091   1.078 -0.0063  0.6949  0.2210
 5436TIP3    H137867   3.091   1.053   1.028 -0.7551 -0.0145 -0.3206
 5436TIP3    H237868   3.054   1.099   1.167  0.6571  0.1323  0.0173
 5437TIP3   OH237869   4.085   4.634   0.623  0.0484  0.1421  0.2646
 5437TIP3    H137870   4.140   4.632   0.701  0.6380  2.4897 -0.0005
 5437TIP3    H237871   4.111   4.714   0.578 -0.6679 -0.8641 -2.0801
 5438TIP3   OH237872   1.990   2.964   8.788  0.6037  0.0233 -0.1167
 5438TIP3    H137873   1.920   2.914   8.744 -0.5134 -1.2074  2.7979
 5438TIP3    H237874   1.962   3.055   8.781 -0.2390 -0.2674 -0.7405
 5439TIP3   OH237875   2.437   2.568   8.707  0.0587 -0.4725  0.8960
 5439TIP3    H137876   2.532   2.578   8.702  0.1581 -1.7433 -0.7835
 5439TIP3    H237877   2.423   2.473   8.714 -1.0775 -0.6420 -2.1648
 5440TIP3   OH237878   1.097   5.132   2.394  0.4974  0.2541  0.0593
 5440TIP3    H137879   1.078   5.168   2.307  0.0673  1.8610  0.7886
 5440TIP3    H237880   1.043   5.184   2.454 -0.9012 -2.2348  1.1114
 5441TIP3   OH237881   6.132   1.989   2.403  0.6235 -0.2185  0.4015
 5441TIP3    H137882   6.182   2.041   2.466 -1.0003 -0.0816  1.6688
 5441TIP3    H237883   6.145   2.033   2.319  1.4199  0.6533  0.9615
 5442TIP3   OH237884   3.006   6.283   2.159 -0.8390  0.0987  0.4289
 5442TIP3    H137885   2.922   6.240   2.144 -0.9513  0.2773  0.5549
 5442TIP3    H237886   2.993   6.373   2.132 -0.8306  0.2462  0.9070
 5443TIP3   OH237887   2.723   0.190   0.816 -0.0159 -0.0908 -0.3078
 5443TIP3    H137888   2.694   0.099   0.810  0.6375 -0.2239 -2.1266
 5443TIP3    H237889   2.800   0.194   0.758  1.5284  1.0244  1.7011
 5444TIP3   OH237890   3.820   5.463   8.546 -0.2542 -0.4421  0.0627
 5444TIP3    H137891   3.809   5.401   8.473 -0.1052  0.7707 -1.0194
 5444TIP3    H237892   3.796   5.412   8.623  0.7541 -2.1307 -0.6802
 5445TIP3   OH237893   3.392   4.466   1.227  0.5262  0.3269 -0.0374
 5445TIP3    H137894   3.420   4.557   1.216  0.4324  0.2686 -0.8027
 5445TIP3    H237895   3.386   4.432   1.138  0.4214 -0.3897  0.2385
 5446TIP3   OH237896   0.001   5.962   3.223 -0.1385 -0.1434  0.2641
 5446TIP3    H137897  -0.052   5.888   3.253 -1.6358  0.8484  0.1791
 5446TIP3    H237898  -0.052   6.003   3.154  0.7539  0.8654  0.1565
 5447TIP3   OH237899   3.310   0.905   1.885 -0.1404 -0.1054 -0.0405
 5447TIP3    H137900   3.339   0.814   1.881 -0.1069 -0.1145  0.3626
 5447TIP3    H237901   3.388   0.955   1.910 -0.2585 -0.0212  0.1677
 5448TIP3   OH237902   2.463   3.213   2.324 -0.2196  0.0512  0.1433
 5448TIP3    H137903   2.532   3.208   2.391 -1.2756  1.6643  1.4470
 5448TIP3    H237904   2.414   3.132   2.334  1.0564 -0.8127 -0.3469
 5449TIP3   OH237905   0.688   0.412   0.214 -0.3725 -0.9377 -0.4312
 5449TIP3    H137906   0.597   0.383   0.224 -0.6325 -0.3408 -1.0081
 5449TIP3    H237907   0.696   0.437   0.122 -0.2378  1.0062  0.0617
 5450TIP3   OH237908   3.134   0.694   8.509 -0.0325 -0.0124 -0.2273
 5450TIP3    H137909   3.103   0.680   8.599 -0.9860  0.2280 -0.5026
 5450TIP3    H237910   3.146   0.788   8.502  0.8249 -0.1092 -0.1116
 5451TIP3   OH237911   1.463   5.173   1.548 -0.1790 -0.2267  0.1750
 5451TIP3    H137912   1.519   5.177   1.471  0.1354  0.0236  0.4163
 5451TIP3    H237913   1.523   5.160   1.621 -0.3088  1.2740  0.5782
 5452TIP3   OH237914   2.541   0.983   0.274  0.4809  0.1489 -0.3215
 5452TIP3    H137915   2.458   0.945   0.305  0.5615 -0.0777 -0.3861
 5452TIP3    H237916   2.520   1.020   0.188  0.1127  1.2795  0.2244
 5453TIP3   OH237917   5.634   1.374   8.002  0.2070 -0.0120  0.0321
 5453TIP3    H137918   5.730   1.368   8.003  0.1970 -0.9532 -1.5894
 5453TIP3    H237919   5.616   1.458   7.960  0.3415 -0.4376 -0.9045
 5454TIP3   OH237920   0.523   4.140   2.362  0.4650  0.0041  0.5691
 5454TIP3    H137921   0.506   4.230   2.391 -0.5176  0.4708 -1.3005
 5454TIP3    H237922   0.558   4.150   2.273  2.0122 -1.4055  0.9775
 5455TIP3   OH237923   1.710   3.760   2.580 -0.7397 -0.3679  0.2714
 5455TIP3    H137924   1.738   3.805   2.661  1.7111 -0.9656 -0.1708
 5455TIP3    H237925   1.704   3.668   2.605 -0.9118 -0.4337 -0.0160
 5456TIP3   OH237926   3.289   4.428   7.852  0.0104  0.3102 -0.0933
 5456TIP3    H137927   3.239   4.376   7.790  0.9886 -1.1371  0.2828
 5456TIP3    H237928   3.310   4.368   7.923  2.0053  0.9183 -0.0947
 5457TIP3   OH237929   6.028   4.981   2.873 -0.2311 -1.2529 -0.2520
 5457TIP3    H137930   6.076   4.997   2.792  0.9930 -0.4664  0.5795
 5457TIP3    H237931   6.069   5.040   2.936 -2.8402  0.0864  0.3328
 5458TIP3   OH237932   2.327   4.064   2.303  0.2076  0.3711 -0.0121
 5458TIP3    H137933   2.382   4.073   2.380  0.7511  0.0327 -0.3507
 5458TIP3    H237934   2.364   4.126   2.240 -0.5624  1.0373  0.1719
 5459TIP3   OH237935   6.486   2.528   7.751 -0.3558 -1.0440 -0.1833
 5459TIP3    H137936   6.440   2.570   7.678 -0.2263 -0.1238  0.2509
 5459TIP3    H237937   6.576   2.559   7.743  0.0875 -2.4016 -0.7048
 5460TIP3   OH237938   5.019   2.956   7.098  0.6773  0.0985 -0.2894
 5460TIP3    H137939   5.038   2.871   7.138 -2.4739 -0.9488 -0.7682
 5460TIP3    H237940   5.079   2.962   7.024  1.0615 -1.6077 -0.1393
 5461TIP3   OH237941   0.040   6.463   0.558  0.4769 -0.6146  1.0109
 5461TIP3    H137942   0.078   6.522   0.493  0.6923 -1.1119  0.6791
 5461TIP3    H237943   0.089   6.482   0.639 -0.3280  0.5681  1.2518
 5462TIP3   OH237944   0.162   5.302   8.330 -0.5886 -0.1865  0.3554
 5462TIP3    H137945   0.162   5.208   8.312  0.3452 -0.2738  0.7612
 5462TIP3    H237946   0.089   5.336   8.279  0.7454 -0.7015 -2.0663
 5463TIP3   OH237947   1.233   4.302   0.536 -0.2435 -0.2776 -0.2021
 5463TIP3    H137948   1.190   4.260   0.462 -0.0264 -0.7768 -0.0510
 5463TIP3    H237949   1.289   4.233   0.574 -0.4118 -0.0550  0.4722
 5464TIP3   OH237950   1.122   1.477   2.391  0.1311  0.5090  0.0565
 5464TIP3    H137951   1.032   1.458   2.416 -0.4375  2.3382 -0.4018
 5464TIP3    H237952   1.157   1.530   2.463  1.4025 -1.4775  0.9744
 5465TIP3   OH237953   4.034   3.885   3.616  0.3702  0.3177 -1.1620
 5465TIP3    H137954   4.122   3.881   3.654  0.3087  0.4504 -1.0073
 5465TIP3    H237955   3.980   3.830   3.673  0.3716  0.1575 -1.3115
 5466TIP3   OH237956   5.527   3.893   2.641  0.1852 -0.3827 -0.3730
 5466TIP3    H137957   5.454   3.844   2.602 -0.1236  0.4349 -0.8487
 5466TIP3    H237958   5.485   3.948   2.707  0.1335  1.1334 -1.5995
 5467TIP3   OH237959   1.858   6.767   1.307  0.1901  0.2638  0.2163
 5467TIP3    H137960   1.944   6.726   1.298  0.6617  1.1640  0.5561
 5467TIP3    H237961   1.869   6.855   1.271 -0.5371  0.4502  0.4396
 5468TIP3   OH237962   3.943   6.530   7.546 -0.0677 -0.4258 -0.1029
 5468TIP3    H137963   3.853   6.553   7.571  0.3251  0.6370  0.3558
 5468TIP3    H237964   3.940   6.434   7.536 -1.5080 -0.3042 -1.1928
 5469TIP3   OH237965   2.666   1.975   2.381  0.1785 -0.1635 -0.5026
 5469TIP3    H137966   2.702   1.900   2.428 -0.3248  0.4176  0.8678
 5469TIP3    H237967   2.649   2.040   2.449 -0.6872  0.6747 -1.4785
 5470TIP3   OH237968   4.517   5.591   1.594  0.0047 -0.6986 -0.1695
 5470TIP3    H137969   4.544   5.630   1.510 -2.5601  0.1962 -0.6731
 5470TIP3    H237970   4.468   5.512   1.569 -2.2597  0.4763  0.2864
 5471TIP3   OH237971   4.904   1.136   3.795  0.0461 -0.4260  0.3412
 5471TIP3    H137972   4.985   1.188   3.796 -0.3691  0.3285 -1.5729
 5471TIP3    H237973   4.834   1.201   3.797 -0.5250 -1.0460  0.8614
 5472TIP3   OH237974   3.719   0.367   2.327  0.1190  0.3789  0.4290
 5472TIP3    H137975   3.635   0.323   2.341  0.2918  0.4889  2.1085
 5472TIP3    H237976   3.742   0.402   2.414  1.8715  0.3987  0.0027
 5473TIP3   OH237977   5.935   4.653   1.732  0.4379 -0.5214 -0.2629
 5473TIP3    H137978   5.984   4.583   1.777  0.5301 -0.9356 -0.9906
 5473TIP3    H237979   5.904   4.612   1.651  0.1514  0.1742 -0.5101
 5474TIP3   OH237980   1.960   6.443   8.169 -0.1279  0.0061  0.2233
 5474TIP3    H137981   1.963   6.425   8.263 -0.6422 -0.1223  0.2164
 5474TIP3    H237982   2.052   6.446   8.142  0.1132  1.7879  1.0546
 5475TIP3   OH237983   4.600   6.751   1.129 -0.0319 -0.1124 -0.4732
 5475TIP3    H137984   4.568   6.706   1.050  1.6199  0.3430 -1.4503
 5475TIP3    H237985   4.617   6.680   1.191 -2.7519 -0.3860  0.0847
 5476TIP3   OH237986   5.238   1.341   0.567 -0.3050  0.0573  0.2655
 5476TIP3    H137987   5.262   1.423   0.610 -0.1657  0.3624 -0.3771
 5476TIP3    H237988   5.143   1.345   0.559 -0.2265  0.5791 -0.5690
 5477TIP3   OH237989   1.942   6.092   2.074 -0.0292 -0.6447  0.8248
 5477TIP3    H137990   1.872   6.029   2.089  0.0249 -0.4902  1.7460
 5477TIP3    H237991   2.022   6.044   2.097  0.1969 -0.8530 -0.3105
 5478TIP3   OH237992   5.309   5.700   1.748 -0.0659 -0.2783  0.1659
 5478TIP3    H137993   5.219   5.732   1.738 -0.5419 -1.7008 -0.4528
 5478TIP3    H237994   5.310   5.617   1.700  1.6579 -0.1750 -0.0323
 5479TIP3   OH237995   5.018   3.128   0.225  0.1951  0.1939 -0.2046
 5479TIP3    H137996   5.015   3.036   0.250 -0.3896  0.8875  2.6332
 5479TIP3    H237997   5.030   3.127   0.130 -0.9314 -2.7984 -0.4128
 5480TIP3   OH237998   3.361   6.284   8.915 -0.1507  0.5339  0.3434
 5480TIP3    H137999   3.267   6.302   8.921 -0.6786 -1.8972  0.5523
 5480TIP3    H238000   3.400   6.366   8.886 -2.2586  1.7840  0.8418
 5481TIP3   OH238001   4.567   4.363   2.401  0.3179 -0.4094 -0.0138
 5481TIP3    H138002   4.588   4.356   2.494  0.6795  0.1927 -0.0450
 5481TIP3    H238003   4.521   4.446   2.393  0.9143 -0.1172 -0.4807
 5482TIP3   OH238004   1.311   6.012   1.904  0.0933  0.8337 -0.1757
 5482TIP3    H138005   1.388   5.962   1.875  0.3840  0.8117  0.6209
 5482TIP3    H238006   1.268   5.956   1.968 -0.9728  0.5611 -1.1037
 5483TIP3   OH238007   4.878   5.330   2.099 -0.3146 -0.2239 -0.0531
 5483TIP3    H138008   4.849   5.391   2.166 -1.2242 -0.0429 -0.5805
 5483TIP3    H238009   4.967   5.306   2.123  0.6157  2.3965 -0.5870
 5484TIP3   OH238010   5.636   0.555   7.738  0.2943 -0.8873  0.0185
 5484TIP3    H138011   5.656   0.636   7.690  0.1041 -0.0972  1.2310
 5484TIP3    H238012   5.571   0.582   7.803 -1.1575 -2.3994 -0.7281
 5485TIP3   OH238013   1.753   2.655   0.559  0.3278 -0.1538  0.0736
 5485TIP3    H138014   1.798   2.575   0.532  0.4632  0.4750 -1.6572
 5485TIP3    H238015   1.806   2.726   0.523 -0.8298  0.6600 -0.0895
 5486TIP3   OH238016   2.924   6.610   1.066  0.1431 -0.2431 -1.0895
 5486TIP3    H138017   2.845   6.653   1.098  0.1391  0.0259 -1.4529
 5486TIP3    H238018   2.918   6.618   0.971  0.3879 -0.6163 -1.1365
 5487TIP3   OH238019   0.211   0.508   7.929 -0.0967  0.1848 -0.1027
 5487TIP3    H138020   0.224   0.435   7.868 -0.2698  0.5261 -0.5547
 5487TIP3    H238021   0.297   0.520   7.971  0.3939  0.8077 -1.2496
 5488TIP3   OH238022   4.845   4.558   1.696 -0.1369 -0.1069 -0.7992
 5488TIP3    H138023   4.760   4.595   1.720  0.3814  0.7726 -0.2423
 5488TIP3    H238024   4.846   4.559   1.601 -0.3105  0.9693 -0.8009
 5489TIP3   OH238025   0.007   3.876   8.817 -0.3061 -0.0431  0.5849
 5489TIP3    H138026   0.084   3.920   8.852 -0.2341 -1.1172  1.8629
 5489TIP3    H238027   0.040   3.793   8.782 -0.5827  0.4302 -0.8738
 5490TIP3   OH238028   5.274   4.884   1.584  0.1136  0.2974  0.1111
 5490TIP3    H138029   5.215   4.823   1.628 -1.5365  2.3230  0.8842
 5490TIP3    H238030   5.347   4.894   1.645 -0.2329  0.0666  0.5714
 5491TIP3   OH238031   0.139   1.370   7.984 -0.1569  0.5135 -0.1513
 5491TIP3    H138032   0.071   1.438   7.984  0.6417  1.3722 -1.7154
 5491TIP3    H238033   0.151   1.348   7.891  0.4935 -0.8662  0.2379
 5492TIP3   OH238034   1.421   6.518   1.091 -0.0655  0.3985  0.5203
 5492TIP3    H138035   1.496   6.572   1.113 -0.3328  1.2001 -0.4640
 5492TIP3    H238036   1.458   6.434   1.063  0.5422  1.0809 -0.8260
 5493TIP3   OH238037   2.539   6.298   2.393 -0.4244  0.3266 -0.3346
 5493TIP3    H138038   2.506   6.339   2.472  0.8450  0.8783 -0.0719
 5493TIP3    H238039   2.623   6.261   2.418  1.3035  2.8459 -2.0354
 5494TIP3   OH238040   4.020   6.130   0.240 -0.0715 -0.3778  0.0583
 5494TIP3    H138041   3.999   6.220   0.216 -3.0853 -1.5082 -2.0666
 5494TIP3    H238042   4.056   6.092   0.160 -1.5056 -1.7824  0.0523
 5495TIP3   OH238043   0.028   0.341   2.495 -0.1739  0.5329  0.2525
 5495TIP3    H138044   0.015   0.333   2.590 -0.9980 -1.1097  0.0344
 5495TIP3    H238045  -0.050   0.387   2.464 -0.0472  0.7993  0.3227
 5496TIP3   OH238046   1.320   0.497   8.316 -0.2481  0.0409  0.2924
 5496TIP3    H138047   1.286   0.544   8.240  0.4647 -0.0531 -0.0849
 5496TIP3    H238048   1.271   0.534   8.390 -0.7681  0.3083 -0.1769
 5497TIP3   OH238049   0.168   3.934   1.339  0.5071 -0.4908  0.4850
 5497TIP3    H138050   0.132   3.850   1.311 -0.4373 -0.9875  2.9209
 5497TIP3    H238051   0.091   3.989   1.355  1.0257  0.1637  0.7999
 5498TIP3   OH238052   4.877   2.246   2.511 -0.0043  0.1070  0.1857
 5498TIP3    H138053   4.912   2.195   2.438 -0.4678  1.2821 -0.8994
 5498TIP3    H238054   4.782   2.239   2.502 -0.1138  2.0499 -0.7019
 5499TIP3   OH238055   0.291   1.073   8.086 -0.2903  0.3554 -0.1214
 5499TIP3    H138056   0.290   1.078   8.182 -0.3834  3.0180 -0.2067
 5499TIP3    H238057   0.266   0.982   8.067 -1.0004 -0.0415  2.3561
 5500TIP3   OH238058   4.109   5.349   1.132  0.1881  1.0221 -0.3145
 5500TIP3    H138059   4.076   5.324   1.046  1.3655  1.6770 -0.9886
 5500TIP3    H238060   4.044   5.315   1.194 -1.7972  2.3895 -1.5561
 5501TIP3   OH238061   0.603   1.011   1.212  0.7704 -0.1960 -0.4073
 5501TIP3    H138062   0.674   0.948   1.195 -0.4330 -1.1583 -2.1826
 5501TIP3    H238063   0.590   1.055   1.128  0.8803  1.7274  0.5431
 5502TIP3   OH238064   6.740   3.796   0.997 -0.4082 -0.3699 -0.0452
 5502TIP3    H138065   6.693   3.836   0.924 -0.5287 -1.7813 -0.7772
 5502TIP3    H238066   6.697   3.830   1.075  0.5674  2.2405 -0.5138
 5503TIP3   OH238067   0.498   1.105   3.370  0.3289 -0.6435  0.1922
 5503TIP3    H138068   0.408   1.102   3.400 -0.2319 -0.1733 -1.3508
 5503TIP3    H238069   0.520   1.013   3.351 -0.2799 -0.6294 -0.6462
 5504TIP3   OH238070   6.236   3.682   7.807 -0.0019  0.2839  0.1226
 5504TIP3    H138071   6.274   3.643   7.728 -0.5423  0.6147 -0.3054
 5504TIP3    H238072   6.196   3.608   7.853  0.7386  0.0060  0.3479
 5505TIP3   OH238073   6.099   4.644   8.067 -0.1531  0.5726 -0.2563
 5505TIP3    H138074   6.180   4.648   8.016 -0.9772  0.1356 -1.6444
 5505TIP3    H238075   6.110   4.713   8.134  2.1706 -0.7784  0.8878
 5506TIP3   OH238076   1.163   5.465   0.445 -0.2060 -0.5624  0.0855
 5506TIP3    H138077   1.202   5.513   0.518 -1.2550  0.5196 -0.0317
 5506TIP3    H238078   1.231   5.465   0.377  0.7420 -1.4981  0.9988
 5507TIP3   OH238079   6.293   3.039   3.049 -0.3073 -0.5658  0.4825
 5507TIP3    H138080   6.238   3.102   3.096 -1.2281 -1.2493  0.3649
 5507TIP3    H238081   6.340   2.992   3.117 -1.6074 -1.5264  0.7694
 5508TIP3   OH238082   1.354   4.188   0.873  0.9469  0.1761 -0.3512
 5508TIP3    H138083   1.374   4.111   0.819  1.3052  0.4675 -0.6428
 5508TIP3    H238084   1.397   4.261   0.828  1.9691  0.2969  0.7633
 5509TIP3   OH238085   1.319   1.888   8.912 -0.0707  0.6206  0.0549
 5509TIP3    H138086   1.395   1.898   8.854  1.0030  0.9022  1.4571
 5509TIP3    H238087   1.246   1.872   8.853  1.3172 -1.1337 -1.3026
 5510TIP3   OH238088   5.612   3.543   1.231 -0.0363 -0.4315  0.6478
 5510TIP3    H138089   5.590   3.533   1.139 -0.4359  0.2414  0.6682
 5510TIP3    H238090   5.568   3.470   1.274 -0.2714 -0.4521  0.3749
 5511TIP3   OH238091   4.072   6.483   1.213 -0.1535  0.0137 -0.4947
 5511TIP3    H138092   4.071   6.410   1.275 -1.5452  0.2281 -0.2166
 5511TIP3    H238093   3.983   6.485   1.178 -1.8225  4.4026  2.9510
 5512TIP3   OH238094   3.738   3.949   0.920 -0.1423 -0.2419  0.2330
 5512TIP3    H138095   3.715   3.967   1.011 -3.7952  0.2269 -0.6229
 5512TIP3    H238096   3.806   4.012   0.899 -0.9583  1.3060  1.9793
 5513TIP3   OH238097   5.132   3.872   0.330  0.1946 -0.0409 -0.4839
 5513TIP3    H138098   5.091   3.811   0.268 -2.5676  0.7904  0.3788
 5513TIP3    H238099   5.097   3.958   0.307  0.7334  0.5949  0.9353
 5514TIP3   OH238100   2.479   4.483   1.247  0.4698  0.2357  0.3221
 5514TIP3    H138101   2.387   4.510   1.238  0.5220  0.6285  0.9375
 5514TIP3    H238102   2.524   4.524   1.174  0.4291  1.2896  0.8794
 5515TIP3   OH238103   5.696   0.481   0.872 -0.1515  0.2192  0.2062
 5515TIP3    H138104   5.607   0.507   0.897  0.0954  1.6374 -0.2806
 5515TIP3    H238105   5.683   0.406   0.814 -1.0940  0.7861 -0.3547
 5516TIP3   OH238106   3.986   2.714   8.692  0.3913 -0.4910 -0.0245
 5516TIP3    H138107   3.973   2.800   8.733 -1.7888 -1.5560  1.7520
 5516TIP3    H238108   4.028   2.661   8.760  0.6667 -1.1531 -0.6956
 5517TIP3   OH238109   4.581   4.720   3.733  0.4290  0.2719 -0.2959
 5517TIP3    H138110   4.621   4.807   3.733 -0.5698  0.7468  0.1001
 5517TIP3    H238111   4.488   4.736   3.752 -0.4030 -0.5811 -3.0850
 5518TIP3   OH238112   0.024   0.578   0.937  0.4296  0.2061  0.1129
 5518TIP3    H138113   0.024   0.510   1.004 -3.1452 -0.7751 -0.6680
 5518TIP3    H238114   0.004   0.659   0.985  1.1036  0.1102  0.5769
 5519TIP3   OH238115   2.394   2.930   0.993 -0.9833  0.1280  0.4403
 5519TIP3    H138116   2.328   2.992   0.960 -1.0251 -0.0777  0.1349
 5519TIP3    H238117   2.476   2.979   0.991 -0.8507 -0.1241 -0.7043
 5520TIP3   OH238118   0.870   2.991   0.836 -0.2867  0.0451 -0.3651
 5520TIP3    H138119   0.926   2.915   0.815  0.8921  0.3326  1.5066
 5520TIP3    H238120   0.788   2.953   0.865 -1.2495 -0.3892 -3.3498
 5521TIP3   OH238121   6.329   4.055   2.126  0.0126 -0.0139 -0.0047
 5521TIP3    H138122   6.253   4.014   2.168 -0.3022  1.5207  1.0113
 5521TIP3    H238123   6.346   4.001   2.050 -3.7266  0.9617 -1.7834
 5522TIP3   OH238124   5.590   2.929   1.866  0.1661 -0.1334  0.0572
 5522TIP3    H138125   5.583   2.839   1.833  0.4186  0.5884 -2.1134
 5522TIP3    H238126   5.561   2.984   1.794 -0.4561  1.5548  1.5122
 5523TIP3   OH238127   1.655   3.172   8.437  0.2162 -0.0211 -0.4298
 5523TIP3    H138128   1.590   3.231   8.476 -0.1121  0.3513 -1.5095
 5523TIP3    H238129   1.739   3.218   8.449  0.4721 -0.9450  1.8505
 5524TIP3   OH238130   5.894   0.775   1.891  0.4874  0.1876 -0.2033
 5524TIP3    H138131   5.837   0.839   1.933  1.2167  1.0976 -0.5665
 5524TIP3    H238132   5.953   0.746   1.961  1.2650  1.2032 -0.4133
 5525TIP3   OH238133   6.448   0.681   1.068 -0.2335  0.3205  0.1680
 5525TIP3    H138134   6.414   0.592   1.066 -2.7083  1.1965 -0.8569
 5525TIP3    H238135   6.413   0.718   1.150  1.0486  0.2869  0.7518
 5526TIP3   OH238136   6.252   5.016   3.156  0.2203  0.4207  0.1392
 5526TIP3    H138137   6.231   5.084   3.092 -1.7174 -0.6741 -0.4807
 5526TIP3    H238138   6.209   5.044   3.236  1.0937  0.8782  0.4605
 5527TIP3   OH238139   2.627   6.432   1.812 -0.1408  0.1954 -0.4627
 5527TIP3    H138140   2.541   6.390   1.802 -0.6498  1.4419 -1.5659
 5527TIP3    H238141   2.688   6.359   1.816 -1.2005 -0.7099 -0.1102
 5528TIP3   OH238142   4.442   6.141   1.230  0.5170  0.1894 -0.3885
 5528TIP3    H138143   4.373   6.194   1.191  0.2817  0.2228  0.0640
 5528TIP3    H238144   4.502   6.205   1.270 -0.5229  0.1016  1.4254
 5529TIP3   OH238145   5.241   6.545   1.273 -0.1890 -0.4712  0.0349
 5529TIP3    H138146   5.242   6.566   1.180 -0.2593  0.0035  0.1375
 5529TIP3    H238147   5.245   6.631   1.317  2.6374 -0.7454  0.4822
 5530TIP3   OH238148   0.630   0.264   1.321 -0.4503 -0.2853  0.4727
 5530TIP3    H138149   0.703   0.244   1.262 -0.8013  0.6576 -0.3171
 5530TIP3    H238150   0.579   0.182   1.325  0.0042 -0.5936  0.0857
 5531TIP3   OH238151   2.287   3.476   1.629 -0.0568  0.1688 -0.4546
 5531TIP3    H138152   2.220   3.416   1.596  1.7792 -1.5868 -1.2702
 5531TIP3    H238153   2.291   3.458   1.723 -1.9671  1.6731 -0.0318
 5532TIP3   OH238154   0.565   6.314   8.439  0.6624 -0.1943 -0.4394
 5532TIP3    H138155   0.517   6.396   8.452  0.1067 -0.6174  0.2800
 5532TIP3    H238156   0.519   6.251   8.495  1.4295 -0.8598 -0.5463
 5533TIP3   OH238157   4.230   6.300   0.964 -0.3918  0.5657  0.3967
 5533TIP3    H138158   4.267   6.345   0.888 -0.2457 -1.4485 -0.8017
 5533TIP3    H238159   4.135   6.316   0.957 -0.2499  1.5750  0.6267
 5534TIP3   OH238160   3.656   2.016   0.165 -0.1836  0.3135  0.8070
 5534TIP3    H138161   3.709   1.936   0.170 -1.7363 -0.8713 -0.5208
 5534TIP3    H238162   3.651   2.036   0.072 -0.1580  1.7502  1.0928
 5535TIP3   OH238163   4.333   4.029   8.433 -0.0591 -0.2052  0.2069
 5535TIP3    H138164   4.422   4.059   8.416  0.0085  0.2739  1.3177
 5535TIP3    H238165   4.320   4.043   8.527 -0.9076 -1.3392  0.2819
 5536TIP3   OH238166   2.582   5.022   7.387  0.0400 -0.3056  0.7777
 5536TIP3    H138167   2.561   5.115   7.382  0.5387 -0.1672  1.0971
 5536TIP3    H238168   2.531   4.982   7.318  0.8241  0.3907 -0.2385
 5537TIP3   OH238169   2.317   1.788   8.691 -0.0741 -0.2334 -0.3820
 5537TIP3    H138170   2.297   1.746   8.775 -2.1982  2.3426  0.5544
 5537TIP3    H238171   2.272   1.734   8.626 -1.6243 -0.2477  0.6322
 5538TIP3   OH238172   5.571   1.109   7.927  0.3908 -0.7274 -0.3712
 5538TIP3    H138173   5.589   1.115   7.833 -3.8005 -0.6644 -1.4043
 5538TIP3    H238174   5.550   1.199   7.953  0.5681 -0.8979  0.3715
 5539TIP3   OH238175   4.020   3.439   1.692  0.1213  0.2335 -0.5765
 5539TIP3    H138176   3.969   3.518   1.710  0.4630  0.5316 -0.9006
 5539TIP3    H238177   3.987   3.375   1.753 -1.2171  0.1806 -1.3200
 5540TIP3   OH238178   5.082   6.398   8.199 -0.3862 -0.4611 -0.3383
 5540TIP3    H138179   5.042   6.409   8.113 -1.7510  1.2592  0.4696
 5540TIP3    H238180   5.058   6.309   8.226 -0.4689 -0.7870 -1.4492
 5541TIP3   OH238181   2.512   4.523   2.197  0.4192 -0.8383  0.3324
 5541TIP3    H138182   2.541   4.547   2.109  0.3256  1.9394  0.9679
 5541TIP3    H238183   2.590   4.488   2.240  0.6591 -1.4509 -0.5753
 5542TIP3   OH238184   4.549   1.241   8.766 -0.2967 -0.1124  0.2922
 5542TIP3    H138185   4.591   1.160   8.793 -0.2932  0.0490  0.7808
 5542TIP3    H238186   4.620   1.294   8.729  0.1437  0.5460  1.9895
 5543TIP3   OH238187   6.173   4.577   3.304 -0.8787 -0.4496  0.1119
 5543TIP3    H138188   6.204   4.493   3.272 -1.7638 -2.0988  3.1241
 5543TIP3    H238189   6.241   4.607   3.364 -1.4389 -0.0091  0.5409
 5544TIP3   OH238190   0.229   5.352   7.679 -0.0596  0.3176  0.0294
 5544TIP3    H138191   0.303   5.292   7.685 -1.5602 -1.6657 -0.0271
 5544TIP3    H238192   0.160   5.310   7.731 -1.0187  2.2975  0.4415
 5545TIP3   OH238193   6.346   1.967   1.292 -0.2244 -0.1015 -0.5121
 5545TIP3    H138194   6.329   2.060   1.305 -1.9514 -0.6360  1.5451
 5545TIP3    H238195   6.260   1.926   1.294  0.4836 -1.7715 -1.5010
 5546TIP3   OH238196   3.296   1.728   1.045  0.5715  0.2789 -0.4434
 5546TIP3    H138197   3.316   1.752   1.136 -1.0430  1.8186 -0.4254
 5546TIP3    H238198   3.301   1.633   1.044  0.8644  0.2397  1.2072
 5547TIP3   OH238199   6.300   0.427   2.438  0.2130  0.2961  0.0337
 5547TIP3    H138200   6.285   0.393   2.526  0.6660  0.4055  0.1528
 5547TIP3    H238201   6.273   0.518   2.443  2.0303  0.8493  0.5863
 5548TIP3   OH238202   1.294   3.531   8.261  0.1096  0.3736  0.1244
 5548TIP3    H138203   1.223   3.561   8.204 -0.6402  0.8549  1.2871
 5548TIP3    H238204   1.343   3.469   8.207 -1.4890 -0.3616 -0.5406
 5549TIP3   OH238205   0.024   5.274   3.197  0.5812  0.1418 -0.0012
 5549TIP3    H138206  -0.009   5.186   3.178 -0.5445  0.5737 -0.1118
 5549TIP3    H238207   0.112   5.259   3.231  0.2347 -1.0655  0.4260
 5550TIP3   OH238208   0.844   3.389   0.663 -0.3819  0.3414  0.5838
 5550TIP3    H138209   0.819   3.299   0.638 -0.8906 -0.0418  2.3235
 5550TIP3    H238210   0.764   3.440   0.648 -0.7854  0.0506  1.6579
 5551TIP3   OH238211   1.784   4.155   8.053 -0.0398 -0.4523 -0.8313
 5551TIP3    H138212   1.758   4.244   8.029  0.2514  1.8712  5.5136
 5551TIP3    H238213   1.872   4.145   8.016  0.7036  2.7934 -0.2832
 5552TIP3   OH238214   5.767   0.961   2.069 -0.3235 -0.2424 -0.2278
 5552TIP3    H138215   5.740   0.893   2.131 -0.5087  0.3982  0.4083
 5552TIP3    H238216   5.811   1.026   2.123  1.2127 -0.5509 -1.0263
 5553TIP3   OH238217   0.747   0.651   1.783 -0.0473 -0.1669  0.2024
 5553TIP3    H138218   0.800   0.625   1.858 -0.8221  0.4193  0.9783
 5553TIP3    H238219   0.788   0.731   1.751 -1.1914  1.0769  1.6612
 5554TIP3   OH238220   0.532   2.985   0.454  0.2048 -1.2250 -0.4883
 5554TIP3    H138221   0.603   3.010   0.396 -0.8463 -1.2029 -1.8152
 5554TIP3    H238222   0.453   2.995   0.401 -1.2449  2.3923  1.9854
 5555TIP3   OH238223   1.672   3.432   8.286 -0.1719  0.6717  0.1108
 5555TIP3    H138224   1.642   3.356   8.236  2.1467 -0.7211  0.6652
 5555TIP3    H238225   1.767   3.423   8.288  0.0131  2.2812  2.2650
 5556TIP3   OH238226   2.462   2.688   7.587  0.1179 -0.1510 -0.3436
 5556TIP3    H138227   2.418   2.729   7.661  1.0580 -0.3408  0.3359
 5556TIP3    H238228   2.424   2.600   7.581 -0.5371  0.1477 -0.6025
 5557TIP3   OH238229   3.129   0.312   2.803 -0.1597 -0.5693  1.0637
 5557TIP3    H138230   3.194   0.259   2.847  0.9719 -0.8514 -0.8388
 5557TIP3    H238231   3.074   0.249   2.756 -0.2260 -0.1974  0.6315
 5558TIP3   OH238232   0.803   3.625   2.654 -0.8433 -0.3121 -0.0564
 5558TIP3    H138233   0.728   3.650   2.709  1.9209  2.0649  3.0502
 5558TIP3    H238234   0.840   3.709   2.625  0.9516 -1.3792 -1.0112
 5559TIP3   OH238235   2.101   2.480   1.196  0.5207  0.2300  0.0020
 5559TIP3    H138236   2.190   2.447   1.203  0.2775 -0.4866 -0.2088
 5559TIP3    H238237   2.111   2.574   1.182  1.2473  0.1147 -0.2618
 5560TIP3   OH238238   0.312   5.268   7.989 -0.3158 -0.3253 -0.7733
 5560TIP3    H138239   0.225   5.292   7.957 -0.5862  0.6411  0.6342
 5560TIP3    H238240   0.323   5.317   8.070  1.8667  0.1707 -1.2959
 5561TIP3   OH238241   4.116   5.877   8.087 -0.2369  0.1881  0.1744
 5561TIP3    H138242   4.107   5.792   8.044  0.7935  0.1270  0.0591
 5561TIP3    H238243   4.027   5.911   8.092 -0.3768  0.2741 -2.1458
 5562TIP3   OH238244   5.403   1.289   0.354 -0.6224 -0.3366  0.0107
 5562TIP3    H138245   5.358   1.289   0.439  1.9382 -1.3651  1.4837
 5562TIP3    H238246   5.433   1.198   0.344 -0.7321 -0.1908 -1.9573
 5563TIP3   OH238247   2.437   1.069   8.240  0.6631 -0.2918 -0.0978
 5563TIP3    H138248   2.396   1.155   8.242  1.6920  0.4201 -3.2981
 5563TIP3    H238249   2.367   1.011   8.207  0.3239 -0.4630  0.8980
 5564TIP3   OH238250   5.024   4.781   0.603 -0.2353  0.2640  0.2413
 5564TIP3    H138251   4.965   4.705   0.600 -0.5080  0.4050  1.7023
 5564TIP3    H238252   5.058   4.787   0.513 -1.8826 -0.2600 -0.4657
 5565TIP3   OH238253   6.114   6.326   1.942 -0.2800  0.0934  0.6386
 5565TIP3    H138254   6.059   6.382   1.997 -0.5972 -0.1881  0.6113
 5565TIP3    H238255   6.188   6.303   1.999 -0.9449 -0.7435  1.1875
 5566TIP3   OH238256   3.365   3.713   3.017 -0.7204 -0.6951  0.1621
 5566TIP3    H138257   3.412   3.777   2.965 -2.1910  0.0610 -0.3032
 5566TIP3    H238258   3.393   3.729   3.107 -0.9976  0.5766  0.0432
 5567TIP3   OH238259   6.273   5.105   2.736  0.0811 -0.1464  0.2288
 5567TIP3    H138260   6.320   5.129   2.656 -1.4805 -0.9715 -0.9990
 5567TIP3    H238261   6.341   5.080   2.798  1.3552  0.9758 -0.6676
 5568TIP3   OH238262   1.390   4.918   1.536 -0.1025  0.5073 -0.2615
 5568TIP3    H138263   1.412   5.011   1.537 -3.0366  1.2835  1.4968
 5568TIP3    H238264   1.299   4.914   1.509 -0.3431 -1.7887  0.6346
 5569TIP3   OH238265   1.548   3.940   1.901  0.1708  0.1940  0.3466
 5569TIP3    H138266   1.562   3.946   1.806  0.3049 -1.3237  0.2478
 5569TIP3    H238267   1.502   4.021   1.923  2.0130  1.5890 -0.6403
 5570TIP3   OH238268   4.332   4.545   1.954  0.4440 -0.6136 -0.8385
 5570TIP3    H138269   4.279   4.523   2.030 -0.4423  1.0141 -0.9358
 5570TIP3    H238270   4.280   4.518   1.879  0.3446 -0.2458 -0.9049
 5571TIP3   OH238271   1.191   2.742   1.483  0.3678 -0.4240 -0.2038
 5571TIP3    H138272   1.165   2.829   1.450 -1.5941 -1.2671 -1.0737
 5571TIP3    H238273   1.274   2.724   1.439  0.6559  0.8767 -0.2410
 5572TIP3   OH238274   1.784   6.112   8.136  0.5592 -0.2724  0.9610
 5572TIP3    H138275   1.807   6.076   8.050  0.0444  0.2672  0.5809
 5572TIP3    H238276   1.718   6.178   8.116 -0.5117 -1.0262  1.8970
 5573TIP3   OH238277   0.098   5.691   1.893 -0.0284  0.2987 -0.0657
 5573TIP3    H138278   0.085   5.596   1.891  0.0149  0.2870  0.2853
 5573TIP3    H238279   0.028   5.725   1.836 -0.5060  0.1069  0.4019
 5574TIP3   OH238280   4.736   0.506   7.767  0.6012 -0.2693 -0.0294
 5574TIP3    H138281   4.720   0.425   7.816 -1.7616  0.3933  0.4720
 5574TIP3    H238282   4.830   0.521   7.774  0.8039 -1.9388  1.5326
 5575TIP3   OH238283   0.235   4.423   8.575  0.3268 -0.4657  0.1868
 5575TIP3    H138284   0.173   4.354   8.600 -0.5011  0.6599  1.3949
 5575TIP3    H238285   0.209   4.499   8.628  1.6784  0.5566 -0.5471
 5576TIP3   OH238286   0.748   3.682   8.598  0.3161 -0.9056 -0.1809
 5576TIP3    H138287   0.741   3.764   8.549 -2.2322 -1.3683 -0.7233
 5576TIP3    H238288   0.836   3.650   8.579  1.2121  1.4062 -0.3645
 5577TIP3   OH238289   4.300   1.804   0.359  0.2772  0.8155 -0.1162
 5577TIP3    H138290   4.329   1.739   0.294  2.8349  2.6542 -0.9878
 5577TIP3    H238291   4.323   1.765   0.443  1.5770  0.4493 -0.6096
 5578TIP3   OH238292   3.146   3.106   1.701 -0.0303 -0.1531  0.0542
 5578TIP3    H138293   3.105   3.184   1.739  0.9328  0.3256  0.1588
 5578TIP3    H238294   3.162   3.048   1.776 -1.2602 -0.7186 -0.0946
 5579TIP3   OH238295   0.691   6.023   8.445  0.0320 -0.0255 -0.4772
 5579TIP3    H138296   0.782   6.037   8.473 -0.9046  2.1026  1.9109
 5579TIP3    H238297   0.661   6.109   8.416 -1.7467 -0.2590  0.5238
 5580TIP3   OH238298   3.118   4.230   8.443 -0.4292  0.0250 -0.2679
 5580TIP3    H138299   3.134   4.147   8.488 -0.7777  0.1320  0.0601
 5580TIP3    H238300   3.037   4.263   8.482  0.5213  1.2959  0.7380
 5581TIP3   OH238301   2.151   1.280   0.595 -0.0620 -0.0315 -0.0477
 5581TIP3    H138302   2.129   1.328   0.515 -2.1785  0.4808  0.7833
 5581TIP3    H238303   2.086   1.210   0.599  1.3358 -1.3534  0.1532
 5582TIP3   OH238304   2.405   0.955   0.825  0.3987  0.1778 -0.1853
 5582TIP3    H138305   2.396   1.051   0.826 -2.8138 -0.0084  0.4158
 5582TIP3    H238306   2.419   0.931   0.916 -0.2323  0.0286 -0.1199
 5583TIP3   OH238307   1.914   6.184   2.393 -0.4249 -0.9134  0.1597
 5583TIP3    H138308   1.994   6.235   2.396 -1.2211  0.4170 -0.3485
 5583TIP3    H238309   1.886   6.188   2.302 -1.1018 -1.2985  0.3427
 5584TIP3   OH238310   4.542   6.755   2.088  0.4652  0.4098  0.1188
 5584TIP3    H138311   4.519   6.841   2.054 -2.4108  0.2372  1.3925
 5584TIP3    H238312   4.586   6.773   2.171 -0.6827  0.6571  0.6821
 5585TIP3   OH238313   4.685   5.176   1.498  0.1275 -0.3551 -0.7460
 5585TIP3    H138314   4.698   5.189   1.404 -2.8141  0.2525 -1.1759
 5585TIP3    H238315   4.772   5.184   1.536  1.1904  1.0466 -3.2312
 5586TIP3   OH238316   4.964   3.696   1.187  0.2504 -0.4357  0.0384
 5586TIP3    H138317   4.923   3.762   1.130 -1.8188 -0.9957  0.7705
 5586TIP3    H238318   4.943   3.613   1.144  2.5644 -0.6965 -0.7090
 5587TIP3   OH238319   2.431   6.669   1.389  0.4617 -0.7126 -0.1383
 5587TIP3    H138320   2.362   6.699   1.447  0.9348  0.0205  0.0639
 5587TIP3    H238321   2.441   6.739   1.324  0.5738 -1.0998 -0.5468
 5588TIP3   OH238322   6.562   3.103   2.365  0.0798 -0.2055  0.1921
 5588TIP3    H138323   6.602   3.117   2.451  0.4988 -0.4966  0.0472
 5588TIP3    H238324   6.616   3.036   2.324  0.5841  0.7451 -0.7589
 5589TIP3   OH238325   4.577   5.766   7.895 -0.6807  0.3816 -0.1727
 5589TIP3    H138326   4.638   5.695   7.917 -1.7282 -0.0196  1.6156
 5589TIP3    H238327   4.611   5.802   7.813  2.5874  0.8596  1.2280
 5590TIP3   OH238328   0.857   1.988   8.780  0.1393  0.3786 -0.0101
 5590TIP3    H138329   0.852   2.053   8.851  0.5929  0.0384  0.3406
 5590TIP3    H238330   0.945   1.997   8.746  0.5859 -0.7864  0.7616
 5591TIP3   OH238331   1.235   5.477   2.266 -0.4392  0.1243  0.0110
 5591TIP3    H138332   1.294   5.517   2.201 -1.5038  1.6815 -0.0383
 5591TIP3    H238333   1.211   5.392   2.228 -2.0879  1.5371 -2.3353
 5592TIP3   OH238334   6.426   6.660   8.794  0.3138  0.1715 -0.7790
 5592TIP3    H138335   6.434   6.662   8.889 -0.4769 -0.6511 -0.6920
 5592TIP3    H238336   6.452   6.748   8.767  0.2566  0.5110  0.2127
 5593TIP3   OH238337   2.400   1.045   1.583  0.1489  0.1659 -0.1620
 5593TIP3    H138338   2.482   1.039   1.632  0.4637 -1.8920 -0.8517
 5593TIP3    H238339   2.405   1.129   1.539  1.8559  0.1253 -0.1085
 5594TIP3   OH238340   2.105   4.711   8.745  0.3950  0.5549 -0.2958
 5594TIP3    H138341   2.040   4.732   8.811  1.6702  1.6120  0.6837
 5594TIP3    H238342   2.139   4.624   8.770  1.3954  1.2648  0.9217
 5595TIP3   OH238343   2.255   4.948   8.679 -0.1524  0.5168  0.3051
 5595TIP3    H138344   2.298   4.945   8.594  0.6826  2.9049  0.5771
 5595TIP3    H238345   2.214   4.861   8.688 -0.5068  0.2743 -2.6227
 5596TIP3   OH238346   4.325   3.890   3.642  0.2426 -0.0308  0.3658
 5596TIP3    H138347   4.395   3.933   3.690  1.0304 -1.0310  0.1555
 5596TIP3    H238348   4.368   3.817   3.597 -1.1627 -1.5346  1.3514
 5597TIP3   OH238349   5.429   1.257   1.668 -0.1527 -0.2242  0.5772
 5597TIP3    H138350   5.412   1.176   1.717  1.6708 -0.9068  0.1666
 5597TIP3    H238351   5.520   1.249   1.639 -1.1314  0.0199 -3.1055
 5598TIP3   OH238352   2.301   4.016   1.346  0.3632 -0.0728  0.2191
 5598TIP3    H138353   2.316   4.104   1.379  1.2648 -0.3032  0.4477
 5598TIP3    H238354   2.226   4.025   1.287 -1.0209  0.4268  1.9723
 5599TIP3   OH238355   6.440   4.361   1.215  0.0849  0.3047  0.3676
 5599TIP3    H138356   6.436   4.317   1.131 -0.7881 -0.1074  0.6128
 5599TIP3    H238357   6.515   4.322   1.259 -0.4281 -0.6656  0.4192
 5600TIP3   OH238358   3.399   3.279   3.173 -0.4364 -0.3137  0.2487
 5600TIP3    H138359   3.390   3.196   3.220  0.0082  0.0108  0.9156
 5600TIP3    H238360   3.332   3.336   3.210  0.3223  0.1453  0.9518
 5601TIP3   OH238361   6.754   4.053   7.575  0.3306  0.0108  0.5487
 5601TIP3    H138362   6.727   3.970   7.535  0.1058 -0.3440  1.4268
 5601TIP3    H238363   6.828   4.081   7.521  0.8698 -1.1261  0.6586
 5602TIP3   OH238364   0.109   1.184   2.156  0.6083  0.5541 -0.1682
 5602TIP3    H138365   0.155   1.268   2.156  0.8064  0.4483 -0.6424
 5602TIP3    H238366   0.170   1.124   2.198  1.3289  0.1938 -1.6787
 5603TIP3   OH238367   4.649   6.340   8.725  0.0220  0.0741 -0.3443
 5603TIP3    H138368   4.721   6.354   8.664  1.9145 -1.9661  1.2825
 5603TIP3    H238369   4.688   6.348   8.812 -1.9779  0.1191  0.6198
 5604TIP3   OH238370   6.356   5.113   1.859  0.4913  0.1411  0.6557
 5604TIP3    H138371   6.282   5.057   1.882  1.4933 -1.0997  0.9208
 5604TIP3    H238372   6.382   5.154   1.942 -0.0520  0.7901  0.5144
 5605TIP3   OH238373   1.156   2.004   0.888  0.4136  0.1836 -0.1324
 5605TIP3    H138374   1.186   1.939   0.951 -0.8608 -0.5280 -0.2191
 5605TIP3    H238375   1.109   2.069   0.940  0.2056  0.1185 -0.2365
 5606TIP3   OH238376   2.204   5.896   7.820 -0.1069  0.2764  0.4687
 5606TIP3    H138377   2.180   5.893   7.727 -0.6201  0.4821  0.5940
 5606TIP3    H238378   2.129   5.860   7.866  0.4221 -0.4738  0.7663
 5607TIP3   OH238379   3.534   3.627   2.016 -0.2513  0.0929  0.2920
 5607TIP3    H138380   3.613   3.680   2.026 -0.1048 -0.0470 -0.1115
 5607TIP3    H238381   3.552   3.547   2.067  0.2043 -0.3020 -0.4728
 5608TIP3   OH238382   4.196   5.878   0.401  1.6190  0.7496 -0.3363
 5608TIP3    H138383   4.227   5.968   0.390 -0.5468  1.3913 -1.8621
 5608TIP3    H238384   4.115   5.874   0.350  1.5367 -2.0290 -0.1468
 5609TIP3   OH238385   5.930   5.397   2.224 -0.3220 -0.2290  0.3413
 5609TIP3    H138386   5.842   5.359   2.218  0.3221 -1.8852  0.6961
 5609TIP3    H238387   5.925   5.455   2.300 -0.6864 -1.6266  1.4354
 5610TIP3   OH238388   4.660   2.315   1.964  0.4174  0.5398 -0.0205
 5610TIP3    H138389   4.682   2.329   2.056  1.5275  2.5369 -0.5371
 5610TIP3    H238390   4.719   2.247   1.935  0.7162  0.5675  0.5154
 5611TIP3   OH238391   2.208   3.041   0.225 -0.2829 -0.1892 -0.0003
 5611TIP3    H138392   2.239   3.033   0.134 -1.1031 -0.5283 -0.2605
 5611TIP3    H238393   2.221   2.954   0.262  0.2753  0.0115  0.2917
 5612TIP3   OH238394   0.312   3.179   8.421  0.6574 -0.2078  0.6271
 5612TIP3    H138395   0.295   3.240   8.492  4.3064 -0.3948  1.8440
 5612TIP3    H238396   0.362   3.108   8.462  1.2416 -1.2878 -1.7835
 5613TIP3   OH238397   0.206   5.268   0.605 -0.4256 -0.1515 -1.0133
 5613TIP3    H138398   0.223   5.240   0.515  1.7521  0.4049 -0.8361
 5613TIP3    H238399   0.285   5.316   0.630 -0.8315 -0.5873  1.3250
 5614TIP3   OH238400   6.311   5.203   7.681  0.0191  0.1787  0.5735
 5614TIP3    H138401   6.330   5.231   7.591 -1.4786 -1.1142 -0.1973
 5614TIP3    H238402   6.352   5.116   7.687  0.0234  0.2207  1.1139
 5615TIP3   OH238403   1.526   0.658   8.461  0.4060 -0.2743  0.5251
 5615TIP3    H138404   1.455   0.616   8.412 -0.1906  0.5316  0.6647
 5615TIP3    H238405   1.603   0.647   8.406 -0.1279  0.0841 -0.3159
 5616TIP3   OH238406   1.087   4.250   0.316 -0.4379  0.5610 -0.3159
 5616TIP3    H138407   1.017   4.189   0.340 -0.7223  1.2404  0.6393
 5616TIP3    H238408   1.130   4.209   0.241 -1.3414 -0.2599 -0.4029
 5617TIP3   OH238409   1.135   1.308   1.151 -0.0490 -0.1143  0.4736
 5617TIP3    H138410   1.214   1.361   1.141  0.8015 -1.6530 -1.7374
 5617TIP3    H238411   1.064   1.372   1.161  1.2975  1.3151  1.2865
 5618TIP3   OH238412   1.274   0.518   2.195 -0.5030  0.5355  0.5197
 5618TIP3    H138413   1.316   0.523   2.281  0.6115 -0.8294  0.0955
 5618TIP3    H238414   1.324   0.578   2.140  0.9762 -1.0398  0.0315
 5619TIP3   OH238415   5.318   0.268   0.427  0.1840 -0.0924 -0.0772
 5619TIP3    H138416   5.281   0.356   0.433 -0.0218 -0.2274  0.8269
 5619TIP3    H238417   5.412   0.281   0.440  0.0300 -0.1046  1.1810
 5620TIP3   OH238418   5.058   5.666   7.749  0.1573  0.1474  0.0707
 5620TIP3    H138419   5.125   5.722   7.710  0.1981  1.2582  1.6458
 5620TIP3    H238420   5.107   5.603   7.802  0.0261 -0.3110 -0.3421
 5621TIP3   OH238421   3.099   3.742   0.356  0.4536 -0.0971  0.9535
 5621TIP3    H138422   3.109   3.654   0.321 -0.6455  0.4829 -0.9331
 5621TIP3    H238423   3.009   3.766   0.335  1.0008  1.8032  0.6164
 5622TIP3   OH238424   2.078   4.306   2.984 -0.0317  0.3181 -0.0243
 5622TIP3    H138425   2.071   4.395   2.949 -1.6751  0.7397  1.2333
 5622TIP3    H238426   2.134   4.315   3.061 -0.7559  0.4346  0.5073
 5623TIP3   OH238427   1.322   4.339   8.673 -0.1771  0.3824  0.5768
 5623TIP3    H138428   1.297   4.249   8.694 -1.0692  0.4697 -0.0244
 5623TIP3    H238429   1.243   4.390   8.692  0.5165  1.1343  1.4877
 5624TIP3   OH238430   3.914   3.975   1.393  0.4132 -0.2401  0.0361
 5624TIP3    H138431   3.878   4.063   1.393  0.4634 -0.2201 -0.0821
 5624TIP3    H238432   4.008   3.987   1.395  0.4562 -0.2798 -1.0346
 5625TIP3   OH238433   1.271   6.164   3.196 -0.0768  0.4407  0.4624
 5625TIP3    H138434   1.312   6.125   3.119  0.1222  0.0550  0.7594
 5625TIP3    H238435   1.196   6.108   3.214  0.1016  0.2969  0.7775
 5626TIP3   OH238436   5.137   4.827   0.365  0.5098  0.0808  0.4609
 5626TIP3    H138437   5.054   4.804   0.323  0.8719 -1.4604  0.5207
 5626TIP3    H238438   5.153   4.918   0.339 -0.1086 -0.2869 -1.3631
 5627TIP3   OH238439   1.475   2.953   8.348 -0.2748  0.1170 -0.4277
 5627TIP3    H138440   1.543   3.017   8.372  0.1686 -0.8876  1.0800
 5627TIP3    H238441   1.482   2.884   8.413 -2.3678 -0.3215 -0.6021
 5628TIP3   OH238442   2.083   1.632   2.442 -0.3626  0.0466  0.5068
 5628TIP3    H138443   2.169   1.673   2.453  0.0467 -0.6167 -0.1347
 5628TIP3    H238444   2.047   1.673   2.364  0.3482 -1.2814 -0.5517
 5629TIP3   OH238445   2.421   3.462   0.554 -1.1143 -0.3275  0.1911
 5629TIP3    H138446   2.339   3.497   0.588 -0.8901  1.0422 -0.5892
 5629TIP3    H238447   2.408   3.367   0.552 -1.8226 -0.3238  2.2306
 5630TIP3   OH238448   5.218   2.974   1.411 -0.2207 -0.5188 -0.2804
 5630TIP3    H138449   5.285   2.907   1.402  0.4480 -0.2875  2.2989
 5630TIP3    H238450   5.136   2.930   1.387 -0.0109 -2.7603  2.6015
 5631TIP3   OH238451   0.093   5.659   1.357  0.6404  0.4990  0.0914
 5631TIP3    H138452   0.148   5.583   1.375  0.7064  1.0236  2.4295
 5631TIP3    H238453   0.144   5.712   1.295  1.9237  0.0454  0.7199
 5632TIP3   OH238454   1.782   3.169   2.894 -1.1874 -0.0383  0.0342
 5632TIP3    H138455   1.740   3.111   2.958 -2.0049 -0.1238 -0.5648
 5632TIP3    H238456   1.872   3.177   2.925 -1.2175 -1.1306  0.4750
 5633TIP3   OH238457   2.417   5.456   2.095 -0.0970 -0.5582  0.9896
 5633TIP3    H138458   2.322   5.453   2.108 -0.3526 -1.2000 -0.7165
 5633TIP3    H238459   2.443   5.543   2.124 -1.1093 -0.5921  2.0586
 5634TIP3   OH238460   2.912   4.910   8.489 -0.6703  0.2194  0.4499
 5634TIP3    H138461   2.874   4.956   8.413  0.9528 -0.2435 -0.7091
 5634TIP3    H238462   2.867   4.947   8.564 -1.1442  1.9658 -0.6201
 5635TIP3   OH238463   1.922   0.109   8.639 -0.7961 -0.0316  0.2026
 5635TIP3    H138464   1.840   0.157   8.641 -0.4155  0.6398  0.0203
 5635TIP3    H238465   1.968   0.136   8.718 -0.7984 -0.5004  0.3706
 5636TIP3   OH238466   2.667   3.103   0.738  0.3230  0.0983  0.3568
 5636TIP3    H138467   2.667   3.025   0.792 -0.6387  1.3588  2.2819
 5636TIP3    H238468   2.606   3.163   0.781  1.3023  2.0621 -0.8202
 5637TIP3   OH238469   4.340   0.685   0.666 -0.5081  0.0335  0.1140
 5637TIP3    H138470   4.253   0.675   0.629 -1.3507  1.4640  1.6021
 5637TIP3    H238471   4.363   0.776   0.650  0.4795 -0.1836  0.2312
 5638TIP3   OH238472   3.709   5.110   1.451  0.6616 -0.6596  0.2422
 5638TIP3    H138473   3.734   5.090   1.542  0.3249  2.7618  1.2146
 5638TIP3    H238474   3.792   5.126   1.406  0.7702  2.4582  1.3218
 5639TIP3   OH238475   2.065   3.042   8.165 -0.0104 -0.0396  0.0535
 5639TIP3    H138476   2.070   3.135   8.142 -1.0340  0.0855  0.2834
 5639TIP3    H238477   1.997   3.007   8.108  0.8283 -0.8166 -0.5075
 5640TIP3   OH238478   1.975   6.672   0.387 -0.0348 -0.5531 -0.1916
 5640TIP3    H138479   1.993   6.612   0.314 -1.3619  0.7364 -1.6769
 5640TIP3    H238480   1.884   6.652   0.412  0.1966 -0.5344  0.6794
 5641TIP3   OH238481   3.857   1.198   0.320 -0.0814 -0.2491  0.1630
 5641TIP3    H138482   3.775   1.174   0.364  0.9812 -0.3049  2.2502
 5641TIP3    H238483   3.896   1.263   0.378  1.0124  0.3378 -1.1861
 5642TIP3   OH238484   2.034   3.577   1.933  0.5672  0.1879 -0.3081
 5642TIP3    H138485   1.942   3.553   1.918 -0.4958  1.0694  3.6116
 5642TIP3    H238486   2.078   3.494   1.948  0.7213 -0.3173 -3.0569
 5643TIP3   OH238487   1.830   3.298   0.693  0.2811  0.1939 -0.4523
 5643TIP3    H138488   1.764   3.323   0.630  0.6345 -0.2788 -1.0216
 5643TIP3    H238489   1.821   3.361   0.764 -0.1207  0.7313 -0.9731
 5644TIP3   OH238490   5.728   3.650   0.474  0.2887 -0.1736 -0.9886
 5644TIP3    H138491   5.638   3.651   0.508  0.3679 -0.4671 -0.7748
 5644TIP3    H238492   5.721   3.609   0.388 -0.2359  2.3491 -2.2451
 5645TIP3   OH238493   2.636   1.280   8.443  0.0279 -0.4894  0.0099
 5645TIP3    H138494   2.641   1.285   8.347  1.0014 -0.0789  0.0717
 5645TIP3    H238495   2.722   1.247   8.469 -1.0145 -2.8837  0.6125
 5646TIP3   OH238496   2.643   1.788   1.131 -0.0086 -0.2096 -0.0460
 5646TIP3    H138497   2.712   1.852   1.115  0.0543 -0.3909 -0.5009
 5646TIP3    H238498   2.628   1.792   1.225  0.3444  0.1151 -0.0024
 5647TIP3   OH238499   4.866   4.259   1.594  0.5314  0.2100 -0.7777
 5647TIP3    H138500   4.957   4.287   1.595 -0.1329  2.5569  0.4294
 5647TIP3    H238501   4.819   4.331   1.552 -1.2708  1.0150  2.3385
 5648TIP3   OH238502   1.546   5.303   7.880  0.0308  0.6796 -0.8991
 5648TIP3    H138503   1.598   5.223   7.886  1.8701  1.8851  0.2594
 5648TIP3    H238504   1.591   5.356   7.815  1.0906  2.2611  1.0227
 5649TIP3   OH238505   5.725   1.195   2.273  0.2122 -0.8220  0.2698
 5649TIP3    H138506   5.810   1.213   2.231 -0.0254 -1.9800 -0.8020
 5649TIP3    H238507   5.672   1.272   2.255  0.4307 -0.8963 -0.7798
 5650TIP3   OH238508   5.446   0.572   0.973 -0.5188  0.2755  0.2971
 5650TIP3    H138509   5.499   0.593   1.049  0.3179 -0.4539 -0.0611
 5650TIP3    H238510   5.429   0.478   0.980 -0.9075  0.3063 -0.1222
 5651TIP3   OH238511   0.747   1.922   7.740 -0.9398  0.3401  0.4674
 5651TIP3    H138512   0.728   2.015   7.755  0.8616  0.8604 -0.1883
 5651TIP3    H238513   0.831   1.908   7.785 -0.7157 -0.7225 -0.2634
 5652TIP3   OH238514   2.672   2.236   2.515 -0.0178  0.5870 -0.2502
 5652TIP3    H138515   2.713   2.185   2.585 -0.1961  1.0574  0.2072
 5652TIP3    H238516   2.587   2.262   2.551 -0.2083  0.6404 -0.7315
 5653TIP3   OH238517   2.866   0.871   1.295  0.9240  0.1945 -0.0658
 5653TIP3    H138518   2.918   0.866   1.216  0.9574 -0.9730 -0.0006
 5653TIP3    H238519   2.896   0.796   1.348 -0.3984 -0.1594  0.2194
 5654TIP3   OH238520   3.764   1.381   1.467  0.0458  0.3680 -0.1533
 5654TIP3    H138521   3.718   1.325   1.530  0.6781 -0.9528 -0.8273
 5654TIP3    H238522   3.846   1.403   1.511 -0.1821  0.7391  0.0930
 5655TIP3   OH238523   1.903   0.278   2.495  0.2224  0.0502  0.3943
 5655TIP3    H138524   1.822   0.240   2.462  0.9918 -0.5800 -0.8327
 5655TIP3    H238525   1.878   0.321   2.577 -1.5062  0.5867 -0.3743
 5656TIP3   OH238526   2.246   3.976   0.500  0.5188 -0.1650 -0.3449
 5656TIP3    H138527   2.322   3.993   0.444  1.1109 -1.4572  0.0200
 5656TIP3    H238528   2.211   3.892   0.469 -1.6739  1.0684 -1.4458
 5657TIP3   OH238529   0.927   2.152   0.063 -0.4882  0.4606 -0.4560
 5657TIP3    H138530   0.915   2.118   0.152 -3.4482 -0.1201 -0.9624
 5657TIP3    H238531   0.902   2.245   0.069  0.6226  0.7701 -0.4484
 5658TIP3   OH238532   0.128   4.732   1.472 -0.5193 -0.2467  0.0011
 5658TIP3    H138533   0.047   4.680   1.466  1.2892 -3.4115  0.3984
 5658TIP3    H238534   0.195   4.668   1.496  2.1254  2.2541 -0.1834
 5659TIP3   OH238535   5.566   5.738   7.604 -0.0549 -0.1877 -0.1663
 5659TIP3    H138536   5.558   5.647   7.633  0.5802 -0.0408  0.4962
 5659TIP3    H238537   5.529   5.738   7.516 -0.7136 -0.9386  0.0977
 5660TIP3   OH238538   5.923   2.664   3.146  0.3947  0.2018  0.2166
 5660TIP3    H138539   5.954   2.736   3.201 -2.4157 -0.3321  2.7296
 5660TIP3    H238540   5.960   2.585   3.185 -1.4364 -0.1593  1.3445
 5661TIP3   OH238541   3.434   2.473   2.339  0.2087  0.6307 -0.2504
 5661TIP3    H138542   3.349   2.510   2.319  0.5148  1.0524 -0.7851
 5661TIP3    H238543   3.463   2.432   2.258 -0.4002 -1.3879  0.4825
 5662TIP3   OH238544   2.528   5.968   1.310 -0.3571 -0.1101 -0.1009
 5662TIP3    H138545   2.539   5.874   1.325 -2.1921 -0.3108  0.1728
 5662TIP3    H238546   2.520   5.976   1.215  1.6910  0.0385 -0.3125
 5663TIP3   OH238547   5.042   2.535   7.450  0.4190  0.3652  0.0607
 5663TIP3    H138548   5.018   2.586   7.372 -0.2572 -0.0564 -0.0163
 5663TIP3    H238549   4.959   2.498   7.480  0.5266  1.2361  1.5042
 5664TIP3   OH238550   0.310   0.370   3.158  0.2635 -0.3104  0.1722
 5664TIP3    H138551   0.232   0.379   3.104 -0.2279  0.4678  0.9784
 5664TIP3    H238552   0.354   0.292   3.125  0.1310  0.2970 -1.5157
 5665TIP3   OH238553   5.298   6.375   8.461 -0.3196  0.2186 -0.4246
 5665TIP3    H138554   5.369   6.320   8.428  0.3135 -0.1140  1.3787
 5665TIP3    H238555   5.317   6.386   8.554 -2.0497  1.0300 -0.1196
 5666TIP3   OH238556   0.851   5.944   0.064 -0.0501  0.2996 -0.7032
 5666TIP3    H138557   0.928   5.912   0.110 -0.2891 -0.4090 -0.7818
 5666TIP3    H238558   0.856   5.904  -0.023 -0.1895  0.7344 -0.9181
 5667TIP3   OH238559   3.394   0.292   0.640  0.0004 -0.0253  0.2554
 5667TIP3    H138560   3.359   0.224   0.583 -0.6881  1.0144 -0.6022
 5667TIP3    H238561   3.430   0.358   0.580 -1.4752  1.4775  0.9441
 5668TIP3   OH238562   1.711   5.781   8.101  0.1914 -0.1911  0.4326
 5668TIP3    H138563   1.783   5.737   8.147  0.9404 -0.5710 -1.0273
 5668TIP3    H238564   1.726   5.760   8.009 -2.1012 -0.6815  0.1288
 5669TIP3   OH238565   1.008   4.077   1.485 -0.3176  0.2491  0.2651
 5669TIP3    H138566   0.985   3.984   1.484  1.6003 -0.2494 -1.2605
 5669TIP3    H238567   0.940   4.118   1.432 -0.3003 -0.5092 -0.3679
 5670TIP3   OH238568   4.554   5.030   7.963 -0.1026 -0.4607 -1.0755
 5670TIP3    H138569   4.550   4.956   7.902  0.0428  0.8328 -2.6921
 5670TIP3    H238570   4.464   5.039   7.996 -1.2731  1.4059 -4.3369
 5671TIP3   OH238571   4.851   4.024   1.808  0.1853  0.3557 -0.0321
 5671TIP3    H138572   4.807   4.099   1.767 -0.2815 -0.6934 -1.5162
 5671TIP3    H238573   4.866   4.052   1.898 -0.8254  1.8773 -0.2981
 5672TIP3   OH238574   1.869   5.130   7.442 -0.3282 -0.5593 -0.0151
 5672TIP3    H138575   1.801   5.071   7.410  0.8714 -0.9910 -1.9507
 5672TIP3    H238576   1.861   5.209   7.389  2.1432 -1.5566 -2.0974
 5673TIP3   OH238577   3.907   0.019   3.023  0.2831 -0.4999  0.2249
 5673TIP3    H138578   3.885  -0.026   3.105 -1.5431  1.8369  1.1792
 5673TIP3    H238579   3.999  -0.001   3.009  0.4179 -1.7621  2.3503
 5674TIP3   OH238580   4.097   0.598   2.613 -0.2569  0.0322  0.1858
 5674TIP3    H138581   4.044   0.656   2.559 -0.6438 -1.4627 -1.1228
 5674TIP3    H238582   4.036   0.532   2.646  0.3370 -0.2225  0.8224
 5675TIP3   OH238583   3.529   3.814   7.655 -0.9119  0.1441  0.1768
 5675TIP3    H138584   3.568   3.728   7.635  0.3785  0.4525  1.2234
 5675TIP3    H238585   3.438   3.806   7.628 -0.9016 -1.6810  0.5596
 5676TIP3   OH238586   1.228   3.753   1.673 -0.2622 -0.1862  0.5669
 5676TIP3    H138587   1.276   3.808   1.611 -0.9140 -1.0445 -0.7459
 5676TIP3    H238588   1.177   3.815   1.725 -0.9782  0.4906 -0.8714
 5677TIP3   OH238589   6.611   0.976   8.196  0.3323 -0.5048 -0.0384
 5677TIP3    H138590   6.540   1.018   8.147  1.2175  1.0431 -0.0601
 5677TIP3    H238591   6.661   0.927   8.130  0.4171  0.0112 -0.3594
 5678TIP3   OH238592   2.251   1.122   0.075  0.0945  0.0755 -0.0874
 5678TIP3    H138593   2.175   1.107   0.017  0.6480 -0.7745 -0.6149
 5678TIP3    H238594   2.214   1.121   0.163 -0.6630  0.7239 -0.3748
 5679TIP3   OH238595   4.233   4.028   1.075  0.2330  0.3081 -0.0534
 5679TIP3    H138596   4.253   3.943   1.036  0.0228 -0.9718  2.4262
 5679TIP3    H238597   4.179   4.072   1.010 -2.3258 -2.7393 -0.2188
 5680TIP3   OH238598   3.970   6.738   7.807  0.2754 -0.5901 -0.0640
 5680TIP3    H138599   3.977   6.785   7.724  1.7444 -0.8887 -0.1377
 5680TIP3    H238600   3.895   6.777   7.851  0.7243  0.9936 -0.6451
 5681TIP3   OH238601   4.942   1.719   7.285  0.2682  0.0221  0.5467
 5681TIP3    H138602   4.952   1.648   7.221 -0.8809  0.5208 -0.2083
 5681TIP3    H238603   4.897   1.679   7.359  0.7616 -0.3269  0.6674
 5682TIP3   OH238604   1.059   3.400   4.994 -0.1474  0.5011  0.6531
 5682TIP3    H138605   1.021   3.487   4.988 -0.2513  0.4593  0.7083
 5682TIP3    H238606   1.114   3.393   4.916  4.1881  2.6344  3.1768
 5683TIP3   OH238607   4.961   0.495   0.316 -0.0999 -0.2627  0.5808
 5683TIP3    H138608   4.869   0.471   0.327 -0.4370  0.4019 -0.5731
 5683TIP3    H238609   4.973   0.568   0.376 -0.2355 -0.5757  0.9889
 5684TIP3   OH238610   1.706   3.692   8.230  0.4618 -0.2043  0.0901
 5684TIP3    H138611   1.741   3.654   8.149  2.2761 -1.4104  1.3391
 5684TIP3    H238612   1.659   3.620   8.271  0.3830  0.1175  0.5659
 5685TIP3   OH238613   3.288   5.926   0.498  0.4339 -0.3073  0.1832
 5685TIP3    H138614   3.208   5.952   0.453  1.8923 -0.6653 -2.8385
 5685TIP3    H238615   3.339   6.006   0.506  0.7583 -0.4797 -0.0926
 5686TIP3   OH238616   1.807   0.607   8.110 -0.0043  0.5338  0.1238
 5686TIP3    H138617   1.864   0.583   8.036 -0.7278 -1.2767  0.1264
 5686TIP3    H238618   1.722   0.626   8.069 -0.1680  0.4134  0.4115
 5687TIP3   OH238619   3.176   2.519   2.222 -0.0379  0.0598 -0.0707
 5687TIP3    H138620   3.131   2.435   2.233  1.0392 -0.6261 -0.7477
 5687TIP3    H238621   3.221   2.511   2.138  1.5131  0.6504  0.6751
 5688TIP3   OH238622   3.074   4.460   1.185  0.1619 -0.2341  0.7036
 5688TIP3    H138623   3.155   4.509   1.199  1.4241 -1.5489 -1.4348
 5688TIP3    H238624   3.039   4.495   1.103 -0.4994 -0.8842  0.6996
 5689TIP3   OH238625   2.335   5.749   2.694 -0.5494 -0.1813  0.4819
 5689TIP3    H138626   2.275   5.759   2.621 -1.2309 -0.7735  0.9550
 5689TIP3    H238627   2.304   5.812   2.760 -0.1774  0.0671  0.4261
 5690TIP3   OH238628   6.083   2.735   0.299  0.1487 -0.1517 -0.0417
 5690TIP3    H138629   6.088   2.733   0.203 -0.0840  0.4135 -0.0721
 5690TIP3    H238630   5.995   2.703   0.319 -0.2927  0.9695 -0.0926
 5691TIP3   OH238631   3.170   5.659   8.221 -0.4367  0.5608 -0.1624
 5691TIP3    H138632   3.146   5.736   8.169 -2.0405  0.7811  0.8230
 5691TIP3    H238633   3.244   5.689   8.275 -0.4935  1.1479 -0.3969
 5692TIP3   OH238634   3.658   4.785   0.428  0.0378 -0.7127  0.5547
 5692TIP3    H138635   3.647   4.880   0.439 -0.9117 -0.8361  0.7384
 5692TIP3    H238636   3.673   4.753   0.517  1.3839 -0.6273  0.3828
 5693TIP3   OH238637   4.852   3.850   0.456 -0.0302 -0.0904 -0.3487
 5693TIP3    H138638   4.879   3.893   0.375  0.1917  0.9067  0.2362
 5693TIP3    H238639   4.823   3.922   0.513 -2.3203 -0.9492 -0.3358
 5694TIP3   OH238640   2.177   3.648   1.159  0.2008 -0.0097 -0.7104
 5694TIP3    H138641   2.186   3.573   1.102  1.0501 -0.3761 -0.1134
 5694TIP3    H238642   2.248   3.639   1.223  1.0655  1.8983 -1.3070
 5695TIP3   OH238643   4.987   0.623   0.056 -0.4268  0.4353  0.0127
 5695TIP3    H138644   5.076   0.654   0.074  0.4579 -1.3213 -1.0799
 5695TIP3    H238645   4.980   0.540   0.102 -1.5139  0.5610  0.0975
 5696TIP3   OH238646   3.212   4.163   0.723 -0.3792  0.6906 -0.1453
 5696TIP3    H138647   3.241   4.122   0.642  0.1502  1.0765 -0.1560
 5696TIP3    H238648   3.194   4.254   0.699  0.0483  0.8757  0.2237
 5697TIP3   OH238649   3.039   3.300   1.886  0.1461 -0.0420 -0.0514
 5697TIP3    H138650   2.967   3.317   1.826 -0.6172 -0.2662  0.7761
 5697TIP3    H238651   3.043   3.377   1.942 -0.6500 -0.7823  1.0690
 5698TIP3   OH238652   5.522   6.149   1.212  0.0085  0.2281  0.1627
 5698TIP3    H138653   5.531   6.125   1.120  1.0659  0.4582  0.1937
 5698TIP3    H238654   5.484   6.236   1.212 -1.6330 -0.4520 -0.0017
 5699TIP3   OH238655   0.466   4.352   8.413 -0.1812 -0.1838  0.2050
 5699TIP3    H138656   0.533   4.286   8.394  0.1105  0.3239 -0.5819
 5699TIP3    H238657   0.400   4.305   8.464  0.0513 -1.0690 -0.2898
 5700TIP3   OH238658   0.714   5.769   2.550 -0.2220 -0.5640  0.0760
 5700TIP3    H138659   0.649   5.817   2.602  0.3729  0.3826 -0.0185
 5700TIP3    H238660   0.701   5.801   2.460  2.0001  1.6024  0.4131
 5701TIP3   OH238661   2.760   2.154   8.723  0.6571  0.0730 -0.5091
 5701TIP3    H138662   2.748   2.238   8.767 -3.1458 -0.8245  0.4569
 5701TIP3    H238663   2.855   2.138   8.728  0.9814  2.1300  3.3661
 5702TIP3   OH238664   2.516   1.722   8.053 -0.5241  0.0068  0.5074
 5702TIP3    H138665   2.441   1.763   8.097 -0.6816 -0.0052  0.2554
 5702TIP3    H238666   2.480   1.689   7.970 -0.8170 -2.1423  1.4119
 5703TIP3   OH238667   2.652   6.333   8.305 -0.1842  0.2150  0.6806
 5703TIP3    H138668   2.562   6.320   8.332 -0.6093  0.1029 -0.6908
 5703TIP3    H238669   2.692   6.385   8.375 -1.8639  2.0073  0.4021
 5704TIP3   OH238670   3.651   4.427   3.086  0.4069  0.6924  0.4859
 5704TIP3    H138671   3.746   4.434   3.078  0.5395  0.3406  1.4971
 5704TIP3    H238672   3.637   4.338   3.119 -0.1523  1.2210  1.7622
 5705TIP3   OH238673   6.716   2.912   1.576  0.7343 -0.2622  0.0262
 5705TIP3    H138674   6.673   2.834   1.539  0.2412  0.3399 -0.6869
 5705TIP3    H238675   6.706   2.902   1.671 -2.2492  0.5199 -0.1161
 5706TIP3   OH238676   6.223   6.655   0.766  0.9517 -0.3451  0.1126
 5706TIP3    H138677   6.283   6.635   0.693 -0.5304 -0.6599 -1.0602
 5706TIP3    H238678   6.281   6.673   0.840  2.5218 -0.0434 -1.1294
 5707TIP3   OH238679   3.870   4.655   3.092  0.1687  0.4060  0.3007
 5707TIP3    H138680   3.833   4.740   3.068  3.0479  1.2618 -1.6451
 5707TIP3    H238681   3.914   4.671   3.175 -1.0586  0.1951  1.0210
 5708TIP3   OH238682   5.662   1.093   1.821  0.2947 -1.3325 -0.1062
 5708TIP3    H138683   5.570   1.076   1.843  0.3496 -1.9067 -0.2989
 5708TIP3    H238684   5.705   1.108   1.906  0.0458 -1.1831 -0.0067
 5709TIP3   OH238685   3.183   6.482   8.411 -0.0999  0.0600 -0.6755
 5709TIP3    H138686   3.275   6.465   8.432 -0.4122  0.2365  0.9380
 5709TIP3    H238687   3.136   6.410   8.453 -0.9546  1.7097  1.3184
 5710TIP3   OH238688   0.676   4.271   7.096 -0.6076 -0.3037 -0.6163
 5710TIP3    H138689   0.699   4.362   7.111 -1.3410 -0.1768 -0.1907
 5710TIP3    H238690   0.702   4.253   7.006 -2.6968  1.0508 -1.5412
 5711TIP3   OH238691   4.345   4.165   2.414 -0.6062 -0.0412 -0.3919
 5711TIP3    H138692   4.404   4.238   2.395 -0.0758 -0.6905 -1.3126
 5711TIP3    H238693   4.404   4.090   2.427 -1.1354 -0.2944  0.6656
 5712TIP3   OH238694   6.759   1.562   8.745  0.3793 -0.1779  0.8627
 5712TIP3    H138695   6.691   1.605   8.798 -2.0467 -0.1549 -2.0126
 5712TIP3    H238696   6.806   1.634   8.704 -1.8942 -0.0468 -1.7941
 5713TIP3   OH238697   2.060   1.391   2.347 -0.0118 -0.8011  0.5927
 5713TIP3    H138698   2.151   1.378   2.318 -0.3603  0.6362 -1.3687
 5713TIP3    H238699   2.058   1.481   2.380 -0.9977 -0.2972 -0.7459
 5714TIP3   OH238700   1.002   2.573   7.791 -0.3740  0.4875  0.2085
 5714TIP3    H138701   0.964   2.567   7.878 -3.1932  1.3726 -0.8423
 5714TIP3    H238702   1.063   2.499   7.786 -0.0052  0.5169  2.9183
 5715TIP3   OH238703   4.755   5.095   8.607 -0.1311  0.7721  0.1070
 5715TIP3    H138704   4.737   5.179   8.650 -1.0956  1.4484 -1.5527
 5715TIP3    H238705   4.677   5.043   8.622 -0.1486  0.7244 -0.1457
 5716TIP3   OH238706   2.684   3.538   1.633 -0.0714  0.4072  0.3492
 5716TIP3    H138707   2.758   3.478   1.622 -1.0210 -0.6192 -0.6835
 5716TIP3    H238708   2.701   3.609   1.572 -0.4555 -0.3874 -0.7215
 5717TIP3   OH238709   3.721   5.766   2.902 -0.0947  0.6127  0.7408
 5717TIP3    H138710   3.680   5.834   2.956 -2.5495 -0.7148  0.6906
 5717TIP3    H238711   3.713   5.799   2.813 -1.0578  0.4167  0.7374
 5718TIP3   OH238712   1.900   3.560   1.335  0.2365 -0.0751  0.3400
 5718TIP3    H138713   1.984   3.605   1.324  1.1399 -1.9240 -0.8853
 5718TIP3    H238714   1.839   3.609   1.280 -0.4100  3.1723  3.5473
 5719TIP3   OH238715   6.150   5.496   0.847 -0.3452 -0.1871  0.1458
 5719TIP3    H138716   6.070   5.541   0.821  0.1002  0.3828 -0.2803
 5719TIP3    H238717   6.207   5.566   0.879 -0.2046 -0.6512  0.9565
 5720TIP3   OH238718   5.128   3.408   2.371 -0.2821  0.2650 -0.3553
 5720TIP3    H138719   5.167   3.462   2.439 -1.2487  1.3165 -0.6045
 5720TIP3    H238720   5.201   3.387   2.311  0.1963  0.8718  0.0110
 5721TIP3   OH238721   2.497   3.871   1.480  0.1305  0.2864 -0.0639
 5721TIP3    H138722   2.468   3.945   1.428  0.4445 -0.4622 -1.3446
 5721TIP3    H238723   2.430   3.861   1.548  0.2232  1.8789  0.3031
 5722TIP3   OH238724   4.064   6.158   3.096  0.1569  0.0254  0.4932
 5722TIP3    H138725   4.099   6.082   3.143  0.7665 -0.7050 -1.0961
 5722TIP3    H238726   3.969   6.153   3.111  0.1708 -1.1375  0.2863
 5723TIP3   OH238727   2.836   3.878   0.322 -0.0840  0.2452 -0.6678
 5723TIP3    H138728   2.771   3.841   0.381  0.8313 -1.5485 -0.7221
 5723TIP3    H238729   2.798   3.961   0.293 -2.9018 -1.2756 -1.6937
 5724TIP3   OH238730   2.395   4.774   7.672  0.4116 -0.4804 -0.1015
 5724TIP3    H138731   2.303   4.780   7.646  0.8775  0.2585 -1.7966
 5724TIP3    H238732   2.420   4.865   7.690  0.0410 -0.9636  3.6046
 5725TIP3   OH238733   3.902   3.311   0.636 -0.6719 -0.2478 -0.0732
 5725TIP3    H138734   3.986   3.340   0.602 -0.9324  0.2036 -0.3460
 5725TIP3    H238735   3.857   3.391   0.661 -0.6518 -0.5383  0.9758
 5726TIP3   OH238736   6.767   6.052   0.652  0.0388 -0.6815  0.0134
 5726TIP3    H138737   6.758   6.115   0.580  0.0281  0.5224  1.0467
 5726TIP3    H238738   6.678   6.020   0.667 -0.1223 -0.1504  0.1872
 5727TIP3   OH238739   2.336   5.338   8.560 -0.5118  0.3131 -0.0750
 5727TIP3    H138740   2.401   5.348   8.629 -0.6977 -0.1945  0.1750
 5727TIP3    H238741   2.292   5.423   8.557  0.4075  0.7881 -0.5113
 5728TIP3   OH238742   2.987   1.924   1.657  0.9337  0.0079  0.1905
 5728TIP3    H138743   2.981   1.868   1.735  1.9928 -1.0258 -0.4376
 5728TIP3    H238744   2.926   1.995   1.674  0.8684 -0.3984  1.8023
 5729TIP3   OH238745   1.495   4.142   1.656  0.4315  0.2242 -0.6095
 5729TIP3    H138746   1.404   4.142   1.686  1.0274 -0.2880  1.2845
 5729TIP3    H238747   1.503   4.064   1.601 -0.0714 -0.1455 -0.1549
 5730TIP3   OH238748   4.132   4.966   2.537  0.5352  0.0988 -0.4042
 5730TIP3    H138749   4.080   4.898   2.580 -1.9435  1.5920 -0.8433
 5730TIP3    H238750   4.177   5.011   2.609  0.5074 -0.6358  0.0825
 5731TIP3   OH238751   6.309   3.507   0.126 -0.4533 -0.1218  0.1679
 5731TIP3    H138752   6.404   3.519   0.121 -0.5538  0.7622  0.1786
 5731TIP3    H238753   6.284   3.477   0.038 -0.3280  0.9942 -0.2690
 5732TIP3   OH238754   5.473   0.690   1.800  0.5447 -0.2261  0.1910
 5732TIP3    H138755   5.414   0.712   1.728  0.5471 -3.6196 -1.0414
 5732TIP3    H238756   5.561   0.703   1.764  0.6313  1.8478  1.0009
 5733TIP3   OH238757   6.659   5.032   1.811 -0.1223  0.4880 -0.3707
 5733TIP3    H138758   6.713   5.095   1.763  1.5789 -0.4038  0.2837
 5733TIP3    H238759   6.599   4.996   1.745  0.1737  1.3957 -1.1566
 5734TIP3   OH238760   6.640   1.284   2.078  0.0854  0.1580  0.4318
 5734TIP3    H138761   6.734   1.267   2.066  0.2660  1.0477  0.5073
 5734TIP3    H238762   6.637   1.355   2.142 -0.6807 -0.4610  1.0981
 5735TIP3   OH238763   4.383   5.048   1.562 -0.3796  0.1411  0.2152
 5735TIP3    H138764   4.322   5.013   1.626  0.8835 -1.9634  0.3798
 5735TIP3    H238765   4.469   5.042   1.605  0.4124 -0.7562 -1.3945
 5736TIP3   OH238766   3.044   3.987   2.008  0.0564  0.1654 -0.0643
 5736TIP3    H138767   3.027   3.905   2.055 -1.8521 -0.9583 -2.5008
 5736TIP3    H238768   3.135   3.979   1.980  1.0752  0.6069  2.7120
 5737TIP3   OH238769   3.857   2.551   2.584 -0.0195 -0.4131 -0.0882
 5737TIP3    H138770   3.779   2.596   2.552  0.6208  0.6247 -0.2346
 5737TIP3    H238771   3.912   2.620   2.620 -0.0335 -1.3634  1.8756
 5738TIP3   OH238772   2.399   4.772   2.852 -0.1183  0.0813 -0.4535
 5738TIP3    H138773   2.359   4.765   2.939  0.7829  2.5121  0.2420
 5738TIP3    H238774   2.426   4.683   2.831 -1.7712 -0.8472  1.0292
 5739TIP3   OH238775   0.780   2.179   1.398 -0.2273  0.1705 -0.2342
 5739TIP3    H138776   0.792   2.270   1.372 -1.2108  0.0606 -1.0986
 5739TIP3    H238777   0.701   2.179   1.451  0.0675 -0.1031  0.2164
 5740TIP3   OH238778   6.388   4.399   0.364  1.2713  0.3876 -0.2865
 5740TIP3    H138779   6.332   4.324   0.382 -0.0296  1.4212  0.0541
 5740TIP3    H238780   6.396   4.401   0.268 -2.0988  2.1362 -0.6921
 5741TIP3   OH238781   3.404   5.665   8.641  0.7417 -0.2665  0.1794
 5741TIP3    H138782   3.462   5.607   8.691  1.0919  0.8413  1.0925
 5741TIP3    H238783   3.454   5.746   8.632 -0.9569  1.0149  1.6881
 5742TIP3   OH238784   6.588   0.949   7.726  0.1543  0.6212 -0.2795
 5742TIP3    H138785   6.643   1.023   7.752  0.7702 -0.0120  0.2433
 5742TIP3    H238786   6.537   0.928   7.804  1.4613 -0.8002  0.2484
 5743TIP3   OH238787   6.387   0.495   0.012 -0.2014  0.1711 -0.2392
 5743TIP3    H138788   6.411   0.530  -0.074 -0.7482  0.5477 -0.2426
 5743TIP3    H238789   6.306   0.540   0.035 -0.0219  0.1350  0.5124
 5744TIP3   OH238790   5.676   4.322   8.523 -0.4328 -0.0288 -0.0010
 5744TIP3    H138791   5.602   4.383   8.521  1.4495  2.4654  0.5596
 5744TIP3    H238792   5.732   4.350   8.451  1.9520  0.9947  2.1115
 5745TIP3   OH238793   4.482   2.534   0.268  0.0085  0.3804 -0.4345
 5745TIP3    H138794   4.469   2.450   0.224  0.5579  0.1070 -0.0827
 5745TIP3    H238795   4.396   2.558   0.301  0.2677 -1.3063  1.7071
 5746TIP3   OH238796   1.518   5.724   1.197 -0.0879  0.2934  0.1657
 5746TIP3    H138797   1.581   5.786   1.162 -1.1235  0.5543 -1.3214
 5746TIP3    H238798   1.567   5.676   1.265  1.9137  0.0247 -1.3617
 5747TIP3   OH238799   0.907   3.020   2.076  0.4537  0.0167  0.3457
 5747TIP3    H138800   0.835   3.077   2.049 -0.3855 -1.3240 -0.3730
 5747TIP3    H238801   0.864   2.952   2.128  0.5640 -2.6719 -2.7296
 5748TIP3   OH238802   2.873   0.297   0.004  0.0617 -0.6305  0.3659
 5748TIP3    H138803   2.847   0.388  -0.014  1.9835 -0.4940 -2.1332
 5748TIP3    H238804   2.820   0.273   0.080 -2.3501  1.7447 -0.3813
 5749TIP3   OH238805   6.071   4.090   1.097 -0.1502 -0.3633  0.1082
 5749TIP3    H138806   6.090   4.182   1.117 -1.4647 -0.0864  0.1460
 5749TIP3    H238807   5.995   4.093   1.040 -0.2071 -1.4369  0.1088
 5750TIP3   OH238808   4.639   1.413   1.776  0.0483 -0.1054 -0.3193
 5750TIP3    H138809   4.713   1.386   1.830 -0.2376 -0.5887 -0.1565
 5750TIP3    H238810   4.667   1.495   1.735  0.2791  0.2596  0.5471
 5751TIP3   OH238811   5.706   4.778   0.441 -0.7282  0.3171  0.1785
 5751TIP3    H138812   5.785   4.829   0.422  0.0339 -1.1704 -0.8372
 5751TIP3    H238813   5.722   4.739   0.527 -0.0058 -0.5739 -0.3443
 5752TIP3   OH238814   2.505   3.226   8.618 -0.2309  0.1787  0.5840
 5752TIP3    H138815   2.421   3.272   8.614 -0.9295 -1.0975 -0.3914
 5752TIP3    H238816   2.500   3.161   8.548  1.8321  0.4485  0.1358
 5753TIP3   OH238817   1.735   6.330   0.555 -0.2217  0.0843 -0.0794
 5753TIP3    H138818   1.704   6.325   0.646  0.2988 -1.0112  0.0549
 5753TIP3    H238819   1.680   6.268   0.508  0.6540 -0.6453 -0.1611
 5754TIP3   OH238820   2.680   4.877   1.568  0.3116 -0.1709  0.0954
 5754TIP3    H138821   2.673   4.849   1.659  1.1609  1.7478  0.8104
 5754TIP3    H238822   2.615   4.946   1.559  0.1278 -0.4446 -0.8130
 5755TIP3   OH238823   4.319   2.730   1.420  0.4551 -0.1483 -0.2354
 5755TIP3    H138824   4.273   2.767   1.496  0.0483 -1.3526  0.1165
 5755TIP3    H238825   4.384   2.671   1.457  0.0542 -0.9792 -0.8156
 5756TIP3   OH238826   6.686   5.776   8.064 -0.5534  0.2782 -0.2059
 5756TIP3    H138827   6.671   5.795   7.972 -0.5707  0.4843 -0.1610
 5756TIP3    H238828   6.780   5.790   8.077 -0.6702  0.9420 -0.0329
 5757TIP3   OH238829   1.645   4.196   0.502 -0.2876 -0.4590 -0.0911
 5757TIP3    H138830   1.654   4.191   0.597 -2.2255  0.7016  0.2005
 5757TIP3    H238831   1.718   4.252   0.474 -0.6048  0.4655  0.8941
 5758TIP3   OH238832   0.449   5.081   3.328 -0.3078 -0.1158 -0.0214
 5758TIP3    H138833   0.508   5.155   3.339 -0.8537  0.3787 -0.3480
 5758TIP3    H238834   0.467   5.049   3.239 -0.3473 -0.1330 -0.0233
 5759TIP3   OH238835   0.473   5.466   8.560 -0.0663 -0.3637  0.1152
 5759TIP3    H138836   0.460   5.404   8.632 -0.3124 -1.4980 -0.8760
 5759TIP3    H238837   0.537   5.424   8.503 -2.3188 -1.1004 -2.0550
 5760TIP3   OH238838   2.132   1.830   1.192 -0.2023  0.7647 -0.4174
 5760TIP3    H138839   2.172   1.904   1.237  1.0639  1.5483 -2.6624
 5760TIP3    H238840   2.053   1.810   1.243 -0.4251  3.4585  0.4334
 5761TIP3   OH238841   2.801   2.038   1.109 -0.3126 -0.2665 -0.2881
 5761TIP3    H138842   2.845   2.100   1.167 -0.9127 -1.1435  1.1541
 5761TIP3    H238843   2.727   2.086   1.074 -0.6981 -0.0963  0.7166
 5762TIP3   OH238844   2.857   0.586   8.426 -0.0318 -0.5597 -0.2189
 5762TIP3    H138845   2.795   0.622   8.489 -2.4788  1.2703 -3.3618
 5762TIP3    H238846   2.923   0.654   8.416  0.1349 -0.6788  0.0633
 5763TIP3   OH238847   0.682   5.600   1.090 -0.3206  0.1354  0.3806
 5763TIP3    H138848   0.751   5.536   1.109 -0.4263 -0.6435 -1.6629
 5763TIP3    H238849   0.607   5.572   1.143  0.7675  0.8191  2.4034
 5764TIP3   OH238850   6.598   5.429   1.395  0.2010  0.3479 -0.2071
 5764TIP3    H138851   6.577   5.455   1.484 -0.5616  0.6062 -0.4485
 5764TIP3    H238852   6.586   5.334   1.394 -0.6833  0.4482 -0.2485
 5765TIP3   OH238853   3.351   0.248   2.137  0.0161 -0.5070  0.6373
 5765TIP3    H138854   3.381   0.329   2.179 -0.7876 -0.3104  0.8466
 5765TIP3    H238855   3.328   0.275   2.048 -2.4642  0.0167  1.3669
 5766TIP3   OH238856   5.844   2.506   0.848  0.3350 -0.5526  0.6779
 5766TIP3    H138857   5.787   2.432   0.871  0.1529 -0.9784 -0.9838
 5766TIP3    H238858   5.785   2.582   0.848 -0.0792 -0.8618 -0.2587
 5767TIP3   OH238859   1.928   0.422   8.262  0.2202 -0.6672 -0.1490
 5767TIP3    H138860   1.970   0.481   8.323 -3.7338  1.0899  1.1909
 5767TIP3    H238861   1.866   0.477   8.214 -1.5357 -3.1719 -0.9664
 5768TIP3   OH238862   2.406   0.118   7.866  0.4654  0.2735 -0.4886
 5768TIP3    H138863   2.341   0.141   7.800  1.7951 -0.4293 -2.0913
 5768TIP3    H238864   2.490   0.127   7.822  1.3689 -0.8405  0.9159
 5769TIP3   OH238865   2.331   4.324   8.450  1.0091  0.0990 -0.3001
 5769TIP3    H138866   2.385   4.287   8.380  0.6382 -0.1458 -0.4595
 5769TIP3    H238867   2.252   4.270   8.450  1.0302  0.0654  0.3468
 5770TIP3   OH238868   3.475   3.207   7.602  0.3496  0.1100  0.8889
 5770TIP3    H138869   3.475   3.271   7.673 -0.6793  1.3765 -0.1924
 5770TIP3    H238870   3.384   3.178   7.596  0.1628  0.8920 -0.6110
 5771TIP3   OH238871   4.732   6.640   1.508  0.0512  0.3679  0.3507
 5771TIP3    H138872   4.824   6.655   1.487 -0.2528  0.4544 -1.0369
 5771TIP3    H238873   4.694   6.727   1.517  0.1614  0.3299  1.2175
 5772TIP3   OH238874   0.446   3.143   8.769 -0.4119 -0.2590 -0.0429
 5772TIP3    H138875   0.431   3.056   8.806 -0.9005  0.2131  0.8933
 5772TIP3    H238876   0.528   3.134   8.720 -0.4216 -1.2223  0.0956
 5773TIP3   OH238877   1.722   5.918   2.401  0.3823 -0.5938 -0.1234
 5773TIP3    H138878   1.697   5.997   2.448  2.0893 -0.3028  0.3371
 5773TIP3    H238879   1.658   5.912   2.330 -1.6478 -0.5162  1.6165
 5774TIP3   OH238880   0.996   1.816   7.886 -0.0178  0.5058  0.1997
 5774TIP3    H138881   1.031   1.774   7.807 -1.0469  1.7648 -0.9740
 5774TIP3    H238882   1.068   1.868   7.920  0.1466  0.7506 -0.5043
 5775TIP3   OH238883   1.958   4.456   1.668 -0.6569  0.2686  0.8943
 5775TIP3    H138884   1.895   4.384   1.663 -0.2100 -0.1286  0.9182
 5775TIP3    H238885   2.043   4.415   1.648 -0.5316  0.9684 -0.0530
 5776TIP3   OH238886   3.140   3.370   1.238 -0.2766  0.3434  0.1903
 5776TIP3    H138887   3.163   3.360   1.331 -0.8885  1.4862  0.4923
 5776TIP3    H238888   3.164   3.287   1.198  0.2359 -0.0818  1.3270
 5777TIP3   OH238889   5.981   0.032   1.877 -0.5315 -0.0162  0.2630
 5777TIP3    H138890   5.924   0.099   1.840  0.2636  0.9497  0.7448
 5777TIP3    H238891   6.025  -0.007   1.801  1.0712  1.9365  0.1021
 5778TIP3   OH238892   1.919   2.733   1.520 -0.3709 -0.8767 -0.1313
 5778TIP3    H138893   1.904   2.639   1.514 -0.5834 -0.7555 -2.5915
 5778TIP3    H238894   1.844   2.767   1.568 -0.7358 -1.8651  0.0153
 5779TIP3   OH238895   3.499   1.392   8.287  0.1247 -0.5417 -0.0039
 5779TIP3    H138896   3.452   1.389   8.204  3.0549  2.0145 -1.9792
 5779TIP3    H238897   3.570   1.328   8.276  0.5722 -0.1379  0.5049
 5780TIP3   OH238898   6.470   4.026   2.963  0.0030 -0.3190  0.2395
 5780TIP3    H138899   6.482   4.099   3.023  0.4622  0.7372 -1.0866
 5780TIP3    H238900   6.553   4.021   2.915  0.2432 -2.1689  0.7511
 5781TIP3   OH238901   4.186   5.089   1.332  0.4186  0.2791  0.2433
 5781TIP3    H138902   4.241   5.024   1.288 -1.6745 -1.5383  0.1521
 5781TIP3    H238903   4.222   5.096   1.420  1.5126  0.0298 -0.1749
 5782TIP3   OH238904   2.845   5.176   1.088  0.2443 -0.1667 -0.7027
 5782TIP3    H138905   2.931   5.155   1.052  0.6134  0.9764 -0.5323
 5782TIP3    H238906   2.807   5.091   1.112  0.9741 -0.7474 -1.5536
 5783TIP3   OH238907   0.954   0.669   1.489  0.3503 -0.2609  0.0960
 5783TIP3    H138908   1.039   0.690   1.527  1.6006  0.4180 -2.7931
 5783TIP3    H238909   0.941   0.576   1.507  2.3975 -0.7199 -0.5711
 5784TIP3   OH238910   0.400   3.525   7.786  0.0472 -0.3183  0.7206
 5784TIP3    H138911   0.419   3.431   7.781  1.0111 -0.1055  0.0117
 5784TIP3    H238912   0.432   3.560   7.703 -0.6513  0.5902  0.8134
 5785TIP3   OH238913   5.045   0.124   2.486 -0.8040  0.1155 -0.1614
 5785TIP3    H138914   4.984   0.181   2.439 -1.2476 -2.2143 -2.6251
 5785TIP3    H238915   4.989   0.072   2.543 -0.8332 -0.2946 -0.5609
 5786TIP3   OH238916   2.225   3.136   8.683 -0.0991 -0.2953 -0.1663
 5786TIP3    H138917   2.147   3.080   8.678 -0.1683 -0.3506  1.0709
 5786TIP3    H238918   2.229   3.179   8.598 -1.7229  0.0223 -0.1312
 5787TIP3   OH238919   4.824   1.655   8.582 -0.1795  0.3997 -0.6132
 5787TIP3    H138920   4.854   1.710   8.509 -0.9813  1.2673 -0.3032
 5787TIP3    H238921   4.828   1.566   8.548  0.6340  0.6871 -1.3074
 5788TIP3   OH238922   4.466   0.339   8.757  0.0917 -0.0044  0.1467
 5788TIP3    H138923   4.415   0.311   8.681 -1.3732  1.4079  0.5464
 5788TIP3    H238924   4.552   0.360   8.721  0.4492 -2.4369 -0.5477
 5789TIP3   OH238925   6.259   3.052   2.760 -0.0021 -0.7722 -0.1298
 5789TIP3    H138926   6.245   3.064   2.854 -0.4320  2.3626 -0.4916
 5789TIP3    H238927   6.354   3.041   2.752  0.3784  1.5595  0.5277
 5790TIP3   OH238928   2.739   4.858   1.171  0.7038 -0.1152  0.1698
 5790TIP3    H138929   2.729   4.790   1.105  0.2409  0.8944 -0.8268
 5790TIP3    H238930   2.655   4.860   1.218  1.6663 -2.1752  2.1817
 5791TIP3   OH238931   3.641   3.687   0.902 -0.2182  0.1687  0.3643
 5791TIP3    H138932   3.550   3.715   0.891  0.1721  0.7501 -1.8650
 5791TIP3    H238933   3.692   3.767   0.888  0.7158 -0.6355 -1.0228
 5792TIP3   OH238934   1.753   4.804   0.460  0.0819 -0.1571 -0.1492
 5792TIP3    H138935   1.792   4.767   0.540 -1.1877 -0.6568  0.2551
 5792TIP3    H238936   1.801   4.886   0.446  0.4161 -0.1303  1.0451
 5793TIP3   OH238937   3.129   6.427   8.837  0.9397 -0.3445 -0.0679
 5793TIP3    H138938   3.184   6.501   8.811 -0.5372  0.6963 -0.3722
 5793TIP3    H238939   3.072   6.411   8.762  1.0817 -1.6605  0.0816
 5794TIP3   OH238940   0.051   1.092   7.866  0.0752  0.0952 -0.1107
 5794TIP3    H138941   0.081   1.001   7.855 -0.5738 -0.4128  1.9431
 5794TIP3    H238942   0.116   1.131   7.924  0.2166  0.9154 -0.7988
 5795TIP3   OH238943   5.673   4.975   0.069 -0.5132  0.3418  0.3381
 5795TIP3    H138944   5.649   5.028  -0.007  0.7531  1.4309  0.6496
 5795TIP3    H238945   5.592   4.969   0.120 -0.6934  2.0981  0.3368
 5796TIP3   OH238946   4.129   6.078   1.103 -0.4217  0.0778  0.1386
 5796TIP3    H138947   4.151   6.162   1.062 -0.5965 -0.2942 -0.7508
 5796TIP3    H238948   4.180   6.013   1.054 -1.7181 -0.5349 -0.4416
 5797TIP3   OH238949   2.016   3.868   2.998 -0.0577  0.2533 -0.1519
 5797TIP3    H138950   2.099   3.899   3.035  0.5572  0.6680 -1.8271
 5797TIP3    H238951   2.041   3.793   2.944 -0.7193  0.6473 -1.0110
 5798TIP3   OH238952   4.529   2.426   1.043 -0.5073 -0.1226 -0.3639
 5798TIP3    H138953   4.459   2.489   1.025 -1.9681 -1.3968  0.5483
 5798TIP3    H238954   4.510   2.352   0.985 -0.0278 -0.5517  0.0154
 5799TIP3   OH238955   6.089   0.541   2.990 -0.0790  0.5633  0.7973
 5799TIP3    H138956   6.036   0.587   2.925 -0.9119  0.1591  1.1743
 5799TIP3    H238957   6.026   0.499   3.047  0.6547 -0.7072  0.7149
 5800TIP3   OH238958   5.707   0.119   8.555  0.3602 -0.2176 -0.1556
 5800TIP3    H138959   5.753   0.036   8.542  1.3776  0.2634  0.2437
 5800TIP3    H238960   5.752   0.181   8.497  0.8725  0.4835  0.9376
 5801TIP3   OH238961   2.967   0.494   1.137  0.1471 -0.0282  0.2344
 5801TIP3    H138962   2.983   0.401   1.153 -0.8092 -0.5652 -1.6999
 5801TIP3    H238963   2.884   0.512   1.183 -1.1406 -0.8789 -1.6263
 5802TIP3   OH238964   4.714   4.318   1.872  0.3780 -0.1731  0.5399
 5802TIP3    H138965   4.779   4.371   1.827  0.1673 -0.1079  0.3131
 5802TIP3    H238966   4.722   4.344   1.964  0.5525 -0.0409  0.4883
 5803TIP3   OH238967   0.938   0.034   0.772 -0.3964 -0.1370  0.1400
 5803TIP3    H138968   0.907  -0.040   0.825  1.0132 -2.1340 -1.7083
 5803TIP3    H238969   1.028   0.048   0.800 -0.9308  1.6202  1.1687
 5804TIP3   OH238970   6.390   3.788   8.285  0.2257  0.1510  0.0082
 5804TIP3    H138971   6.311   3.836   8.259 -0.7314 -1.2276  0.3048
 5804TIP3    H238972   6.358   3.712   8.332  1.7023 -0.8857 -0.5889
 5805TIP3   OH238973   3.698   0.044   0.969  0.0544 -0.2045 -0.2906
 5805TIP3    H138974   3.778   0.012   0.928  0.6502  0.4089  0.3698
 5805TIP3    H238975   3.634   0.047   0.897  0.8879  0.2125 -1.0355
 5806TIP3   OH238976   0.628   2.625   2.827 -0.0316  0.2187  0.3932
 5806TIP3    H138977   0.628   2.613   2.922 -1.1495  0.8085  0.4891
 5806TIP3    H238978   0.668   2.710   2.813  2.2653 -0.8349  0.1431
 5807TIP3   OH238979   4.793   0.403   8.695  0.3881 -0.4164 -0.4183
 5807TIP3    H138980   4.777   0.481   8.746  0.5724 -0.1109 -0.8187
 5807TIP3    H238981   4.845   0.433   8.620  1.2276 -1.0613 -0.1195
 5808TIP3   OH238982   5.791   1.638   1.629  0.6193  0.3932  0.0687
 5808TIP3    H138983   5.818   1.685   1.708  1.1422  0.0374  0.1143
 5808TIP3    H238984   5.714   1.684   1.598  1.2201  1.3824  0.0092
 5809TIP3   OH238985   0.146   4.125   1.027  0.3749  0.1613 -0.0960
 5809TIP3    H138986   0.071   4.096   1.080  0.8917 -0.7428  0.1589
 5809TIP3    H238987   0.216   4.139   1.090  0.6615  0.2135 -0.4230
 5810TIP3   OH238988   4.288   4.806   8.443 -0.0054  0.0111 -0.4567
 5810TIP3    H138989   4.323   4.834   8.358 -0.5943 -0.4999 -0.8737
 5810TIP3    H238990   4.284   4.887   8.494  1.8706  0.0861 -0.3337
 5811TIP3   OH238991   5.732   0.118   0.924  0.3326  0.1089 -0.3405
 5811TIP3    H138992   5.740   0.131   0.829 -0.6940  0.3773 -0.3951
 5811TIP3    H238993   5.778   0.036   0.941  3.0773  1.4608 -0.6393
 5812TIP3   OH238994   0.355   2.253   8.578 -0.0256 -0.4031 -0.1231
 5812TIP3    H138995   0.367   2.185   8.513 -2.3601 -1.3199  0.3169
 5812TIP3    H238996   0.345   2.206   8.661 -0.1572  0.5606  0.4236
 5813TIP3   OH238997   3.593   1.053   1.878 -0.1138 -0.5344  0.1915
 5813TIP3    H138998   3.600   1.143   1.848 -1.4675 -0.5059 -0.0978
 5813TIP3    H238999   3.671   1.010   1.843 -0.8177 -0.1166 -2.0688
 5814TIP3   OH239000   5.278   4.813   8.915  0.3198 -0.1769  0.1264
 5814TIP3    H139001   5.305   4.854   8.997  2.0417 -0.7496 -0.1268
 5814TIP3    H239002   5.359   4.801   8.866 -0.2931 -2.6717 -0.3843
 5815TIP3   OH239003   3.088   5.591   2.838 -0.5602 -0.6568 -0.2314
 5815TIP3    H139004   3.144   5.667   2.855  0.9206 -1.5558 -0.8959
 5815TIP3    H239005   3.056   5.606   2.749  0.1251 -1.0306 -0.5479
 5816TIP3   OH239006   1.975   3.556   7.753 -0.5010 -0.0850  0.4775
 5816TIP3    H139007   2.068   3.536   7.739 -0.9089 -1.0492 -1.1657
 5816TIP3    H239008   1.929   3.488   7.704 -2.0953 -0.0519  1.8711
 5817TIP3   OH239009   3.251   6.687   8.746  0.4418  0.1001 -0.3525
 5817TIP3    H139010   3.160   6.716   8.739  0.7302  1.1133 -0.0032
 5817TIP3    H239011   3.300   6.747   8.689  0.6290 -1.7888 -2.3199
 5818TIP3   OH239012   0.868   2.682   0.242  0.2972 -0.0517 -0.1376
 5818TIP3    H139013   0.956   2.670   0.208  0.1978 -0.0735 -0.3902
 5818TIP3    H239014   0.815   2.702   0.165 -0.0745 -0.8775 -0.1116
 5819TIP3   OH239015   4.820   4.739   8.035  0.3779 -0.2803  0.1637
 5819TIP3    H139016   4.846   4.732   7.943 -0.5211  1.5249 -0.2801
 5819TIP3    H239017   4.733   4.699   8.038  1.6730 -3.3305  0.9767
 5820TIP3   OH239018   4.238   1.696   0.839  0.1278 -0.0493 -0.6392
 5820TIP3    H139019   4.209   1.741   0.919 -1.4873  0.2861 -1.3727
 5820TIP3    H239020   4.285   1.619   0.870 -0.2370  0.2200  0.6451
 5821TIP3   OH239021   1.513   2.264   8.314 -0.2375  0.2415 -0.3252
 5821TIP3    H139022   1.506   2.291   8.222 -1.5137 -1.8843 -0.9248
 5821TIP3    H239023   1.423   2.247   8.341  0.0638  1.2733  1.5134
 5822TIP3   OH239024   1.317   0.107   2.576  0.1710 -0.2543 -0.1802
 5822TIP3    H139025   1.364   0.046   2.633 -0.4613 -0.4031  0.1949
 5822TIP3    H239026   1.226   0.102   2.606  0.3136  1.9248  0.8050
 5823TIP3   OH239027   6.476   3.090   1.607 -0.2090 -0.3016  0.6684
 5823TIP3    H139028   6.564   3.054   1.610  0.1278  0.4150 -0.0881
 5823TIP3    H239029   6.474   3.143   1.527 -0.8576  0.8559  1.4164
 5824TIP3   OH239030   6.586   4.590   0.613  0.1854 -0.0179 -0.1662
 5824TIP3    H139031   6.628   4.632   0.538  1.6339 -1.4387 -0.2123
 5824TIP3    H239032   6.651   4.527   0.645 -1.7860 -2.1568 -0.0642
 5825TIP3   OH239033   2.372   0.913   0.535  0.2169 -0.5486 -0.0671
 5825TIP3    H139034   2.344   0.937   0.623  2.0783 -0.6711  0.5975
 5825TIP3    H239035   2.454   0.960   0.521 -0.0184 -0.5581 -1.7292
 5826TIP3   OH239036   4.293   0.789   0.102 -0.2083 -0.0748  0.1626
 5826TIP3    H139037   4.284   0.793   0.197  1.2349 -0.6918  0.3494
 5826TIP3    H239038   4.209   0.755   0.072 -0.5689 -0.1842  1.2449
 5827TIP3   OH239039   6.097   5.174   2.231 -0.2219 -0.6251 -0.7440
 5827TIP3    H139040   6.039   5.245   2.204 -1.6778 -1.8040 -0.8940
 5827TIP3    H239041   6.039   5.111   2.274  1.4612 -0.4416  2.0527
 5828TIP3   OH239042   0.302   1.849   0.251 -0.2380 -0.3445 -0.0152
 5828TIP3    H139043   0.337   1.792   0.320  0.1322 -0.2640 -0.1328
 5828TIP3    H239044   0.379   1.890   0.212 -0.5634  2.3795  1.8816
 5829TIP3   OH239045   3.388   3.390   7.808 -0.0491 -0.2484  0.2798
 5829TIP3    H139046   3.371   3.454   7.739 -1.5447  0.9664  1.6833
 5829TIP3    H239047   3.442   3.438   7.872 -1.4412 -0.2258  1.4952
 5830TIP3   OH239048   1.720   2.584   8.799 -0.2824  0.1826  0.2570
 5830TIP3    H139049   1.646   2.528   8.823  0.4188 -0.6699  0.5086
 5830TIP3    H239050   1.787   2.522   8.768  0.3087  0.9404  0.0032
 5831TIP3   OH239051   4.751   5.116   1.978 -0.0117  0.2023 -0.4248
 5831TIP3    H139052   4.784   5.069   2.056 -0.7564 -0.7228 -0.6490
 5831TIP3    H239053   4.782   5.206   1.989  1.3376 -0.3001  0.1011
 5832TIP3   OH239054   2.714   3.392   8.790 -0.4011 -0.0979  0.5336
 5832TIP3    H139055   2.696   3.338   8.713  0.9561  1.2264 -0.8036
 5832TIP3    H239056   2.633   3.441   8.806 -0.8147 -0.6639  0.1910
 5833TIP3   OH239057   2.194   2.175   2.125  1.0717 -0.3273  0.1269
 5833TIP3    H139058   2.172   2.085   2.150 -2.9067  0.1374 -1.0307
 5833TIP3    H239059   2.147   2.229   2.189  0.6549  0.8768 -1.1569
 5834TIP3   OH239060   0.590   2.443   1.976 -0.1713  0.1122  0.0044
 5834TIP3    H139061   0.636   2.421   1.895 -2.0176 -2.6743 -0.4269
 5834TIP3    H239062   0.656   2.434   2.044  0.7381 -0.3152 -0.8999
 5835TIP3   OH239063   1.618   1.525   7.660 -0.1341  0.1042 -0.1457
 5835TIP3    H139064   1.523   1.513   7.651 -0.2763  0.5696  0.5974
 5835TIP3    H239065   1.652   1.437   7.673 -0.6033  0.0327  0.6651
 5836TIP3   OH239066   4.955   4.146   7.372 -0.0629 -0.1488  0.0522
 5836TIP3    H139067   5.027   4.088   7.346 -1.0830 -1.3630 -0.1128
 5836TIP3    H239068   4.956   4.215   7.305  0.5162 -0.5148 -0.3365
 5837TIP3   OH239069   0.542   1.153   8.837 -0.3606  0.0559  0.2186
 5837TIP3    H139070   0.538   1.077   8.895 -3.3736  0.4783  0.7379
 5837TIP3    H239071   0.624   1.196   8.860  1.5013 -2.9734 -0.1215
 5838TIP3   OH239072   3.070   3.054   2.753  0.3885 -0.1292 -0.2367
 5838TIP3    H139073   3.025   3.026   2.673  0.4590 -3.0155  0.6280
 5838TIP3    H239074   3.016   3.125   2.787 -1.8303 -1.4294 -0.8543
 5839TIP3   OH239075   4.190   5.209   0.189 -0.3988  0.2130  0.0350
 5839TIP3    H139076   4.120   5.212   0.253  0.4578  1.9540  0.9855
 5839TIP3    H239077   4.227   5.298   0.190 -0.3320  0.3150 -2.8599
 5840TIP3   OH239078   4.906   5.843   1.450 -0.1753  0.3240 -0.0971
 5840TIP3    H139079   4.882   5.752   1.434  0.1740  0.1334  0.4292
 5840TIP3    H239080   4.882   5.889   1.369 -1.2102 -0.0606 -0.0185
 5841TIP3   OH239081   1.470   5.013   7.587  0.0090  0.0060  0.1758
 5841TIP3    H139082   1.506   4.925   7.596  0.8957  0.2590 -0.6669
 5841TIP3    H239083   1.454   5.024   7.493 -2.2427 -0.0470  0.5034
 5842TIP3   OH239084   5.659   4.396   1.042  1.0566  0.2076  0.0162
 5842TIP3    H139085   5.587   4.393   0.980  1.8028  0.4555 -0.8797
 5842TIP3    H239086   5.642   4.474   1.096 -0.3661 -0.8101  1.1119
 5843TIP3   OH239087   5.301   3.913   7.614  0.3321  0.0938 -0.3624
 5843TIP3    H139088   5.243   3.922   7.538 -0.4523  2.0297  0.4120
 5843TIP3    H239089   5.389   3.915   7.578 -0.0022  2.0314 -1.1726
 5844TIP3   OH239090   3.181   1.129   2.229  0.1264 -0.9126 -0.0694
 5844TIP3    H139091   3.268   1.127   2.268  1.2693  2.4524 -2.0085
 5844TIP3    H239092   3.122   1.147   2.303  1.2991 -1.2261  0.9849
 5845TIP3   OH239093   5.376   2.779   2.744 -0.0951  0.1135  0.2515
 5845TIP3    H139094   5.369   2.687   2.768 -0.6465 -0.3832 -1.6164
 5845TIP3    H239095   5.387   2.778   2.649  0.8156  1.9518  0.2956
 5846TIP3   OH239096   1.036   2.378   0.283  0.4274  0.1093  0.1986
 5846TIP3    H139097   1.068   2.390   0.194 -1.0347  0.9069 -0.2465
 5846TIP3    H239098   0.987   2.458   0.302 -2.5793 -1.5929  0.2525
 5847TIP3   OH239099   3.323   3.657   3.402  0.3129 -0.9158  0.2214
 5847TIP3    H139100   3.315   3.737   3.455  0.8236 -0.3030 -0.6042
 5847TIP3    H239101   3.391   3.677   3.338  0.5680 -2.0866  0.1081
 5848TIP3   OH239102   5.260   0.666   8.503 -0.1269 -0.0972 -0.0735
 5848TIP3    H139103   5.316   0.734   8.539 -0.2061  0.4784 -1.0244
 5848TIP3    H239104   5.191   0.654   8.569  0.2794  0.2385  0.4146
 5849TIP3   OH239105   4.635   5.399   8.520 -0.5925 -0.0396 -0.2793
 5849TIP3    H139106   4.695   5.369   8.451 -0.7266  0.1291 -0.4720
 5849TIP3    H239107   4.676   5.477   8.555  0.6543 -1.4010  1.4431
 5850TIP3   OH239108   3.801   0.072   0.202 -0.1037 -0.5154  0.0004
 5850TIP3    H139109   3.824   0.162   0.222 -0.7610 -0.5781  1.1355
 5850TIP3    H239110   3.793   0.070   0.106  2.5833 -0.0537 -0.3163
 5851TIP3   OH239111   2.602   5.151   2.421  0.1817  0.3833  0.2657
 5851TIP3    H139112   2.535   5.150   2.489 -0.8171 -0.5202 -0.7057
 5851TIP3    H239113   2.615   5.059   2.397  1.0687  0.6215 -0.2502
 5852TIP3   OH239114   4.329   3.486   1.777  0.3640  0.2992  0.3948
 5852TIP3    H139115   4.385   3.409   1.788  0.5995  0.3196 -0.5508
 5852TIP3    H239116   4.242   3.450   1.758  0.1019  0.2693  1.5840
 5853TIP3   OH239117   4.859   1.549   1.581  0.3053  0.0415  0.1851
 5853TIP3    H139118   4.925   1.583   1.521  0.0997 -1.0673 -0.7036
 5853TIP3    H239119   4.883   1.586   1.666  1.0281  1.0642 -0.4424
 5854TIP3   OH239120   2.355   0.628   0.526  0.2988  0.6089 -0.1227
 5854TIP3    H139121   2.355   0.724   0.516 -1.8509  0.5847 -0.6829
 5854TIP3    H239122   2.376   0.613   0.618  1.8025  1.5521 -0.2765
 5855TIP3   OH239123   5.696   3.838   8.068 -0.6963 -0.1591  0.0919
 5855TIP3    H139124   5.632   3.784   8.021 -1.1915 -1.6025  2.2860
 5855TIP3    H239125   5.650   3.865   8.147 -0.1169  2.7620 -0.4468
 5856TIP3   OH239126   6.499   5.930   1.055  0.0782  0.3988  0.2215
 5856TIP3    H139127   6.546   5.855   1.092 -1.5476 -0.4579  0.6270
 5856TIP3    H239128   6.442   5.960   1.126  0.7290  2.0676  0.0828
 5857TIP3   OH239129   2.525   3.627   8.658  0.0110 -0.6608  0.4542
 5857TIP3    H139130   2.449   3.609   8.713  0.0271  0.0569  0.7229
 5857TIP3    H239131   2.541   3.720   8.669 -0.2722 -0.3875 -1.1474
 5858TIP3   OH239132   2.546   5.622   8.490 -0.2226 -0.0494 -0.2529
 5858TIP3    H139133   2.538   5.667   8.574  0.5061 -1.6632  0.7355
 5858TIP3    H239134   2.508   5.683   8.426 -2.0097  0.6832  1.4051
 5859TIP3   OH239135   3.833   6.330   0.102  0.1485 -0.0978 -0.1985
 5859TIP3    H139136   3.783   6.400   0.060  1.5323  0.6069 -0.7234
 5859TIP3    H239137   3.802   6.329   0.192  1.2111  2.3254  0.2746
 5860TIP3   OH239138   2.811   0.236   2.020  0.3412 -0.0226  0.0800
 5860TIP3    H139139   2.849   0.156   2.055  1.4515 -0.1489 -1.3215
 5860TIP3    H239140   2.733   0.208   1.973 -0.1823 -0.0649  0.9639
 5861TIP3   OH239141   3.993   6.772   0.592 -0.1045  0.5947  0.1179
 5861TIP3    H139142   3.903   6.765   0.624  0.4655 -1.1638  1.5049
 5861TIP3    H239143   3.994   6.724   0.510  0.5753 -4.2823  2.6265
 5862TIP3   OH239144   1.476   2.364   0.165 -0.2009 -0.0530  0.0781
 5862TIP3    H139145   1.546   2.304   0.139  0.4343 -0.3888  2.3669
 5862TIP3    H239146   1.512   2.451   0.149  0.6684 -0.2271  0.9865
 5863TIP3   OH239147   3.820   2.206   2.377 -0.0430 -0.4837  0.1614
 5863TIP3    H139148   3.729   2.232   2.391  0.0424  0.5367 -1.0099
 5863TIP3    H239149   3.869   2.288   2.382  0.5730 -0.7563 -1.0416
 5864TIP3   OH239150   1.050   5.446   1.559 -0.0081 -0.7260  0.2502
 5864TIP3    H139151   1.083   5.535   1.568  1.7639 -1.3196  0.0753
 5864TIP3    H239152   1.005   5.429   1.642 -0.9868  0.5377  0.0131
 5865TIP3   OH239153   1.371   1.498   0.684  0.4815 -0.0373 -0.4117
 5865TIP3    H139154   1.347   1.587   0.707  0.1015 -0.2501  0.0261
 5865TIP3    H239155   1.299   1.465   0.631 -0.5407 -0.8766  1.3972
 5866TIP3   OH239156   0.922   1.469   1.216  0.1541 -0.3855 -0.8445
 5866TIP3    H139157   0.838   1.424   1.210 -0.3468  0.5412 -1.0462
 5866TIP3    H239158   0.933   1.488   1.309  0.6991 -1.4981 -0.6611
 5867TIP3   OH239159   1.857   3.397   7.583 -0.3051 -0.4418 -0.2925
 5867TIP3    H139160   1.801   3.455   7.531  1.0838 -0.2297 -1.6576
 5867TIP3    H239161   1.797   3.345   7.635 -1.6902  0.7556 -0.6207
 5868TIP3   OH239162   1.474   4.044   3.345 -0.5725 -0.0324 -0.0091
 5868TIP3    H139163   1.429   4.081   3.269 -1.5832 -0.3470  0.4194
 5868TIP3    H239164   1.465   3.949   3.334 -0.7257 -0.0800  0.5008
 5869TIP3   OH239165   0.263   1.119   2.880 -0.3337  0.1606 -0.1956
 5869TIP3    H139166   0.258   1.119   2.975  0.4698 -0.4474 -0.1398
 5869TIP3    H239167   0.346   1.164   2.861 -0.8403  0.9273 -0.6386
 5870TIP3   OH239168   0.699   3.373   2.640 -0.4504  0.6001  0.3236
 5870TIP3    H139169   0.711   3.323   2.721 -1.2770  1.9288  1.3204
 5870TIP3    H239170   0.760   3.446   2.648 -2.3190  2.1613  0.9963
 5871TIP3   OH239171   6.656   3.272   2.137 -0.8717 -0.3824 -0.1287
 5871TIP3    H139172   6.709   3.196   2.115 -1.9249 -0.7827 -1.3863
 5871TIP3    H239173   6.632   3.259   2.229  1.4435 -0.0021  0.5983
 5872TIP3   OH239174   3.353   0.299   0.099  0.7184 -0.1979  0.0700
 5872TIP3    H139175   3.275   0.325   0.149  0.6240 -0.4888  0.0763
 5872TIP3    H239176   3.318   0.264   0.017  0.7074 -2.2477  0.8794
 5873TIP3   OH239177   5.757   2.595   7.978  0.3820 -0.1747  0.0955
 5873TIP3    H139178   5.685   2.539   7.951  0.2906 -0.0052 -0.0124
 5873TIP3    H239179   5.722   2.684   7.972  0.6724 -0.0770 -0.1888
 5874TIP3   OH239180   0.076   5.405   7.955  0.3234 -0.0593  0.4462
 5874TIP3    H139181   0.021   5.394   8.032  0.0108 -0.4714  0.1657
 5874TIP3    H239182   0.019   5.451   7.892  0.5661  0.2455  0.4465
 5875TIP3   OH239183   0.906   6.168   8.617  0.1612  0.5411  0.1919
 5875TIP3    H139184   0.935   6.084   8.581  0.3959  0.3957  0.7092
 5875TIP3    H239185   0.915   6.229   8.544 -0.7065 -0.0219 -0.3989
 5876TIP3   OH239186   0.937   5.511   1.141 -0.1548 -0.3973 -0.2605
 5876TIP3    H139187   0.931   5.573   1.214  0.3321 -1.1021  0.3942
 5876TIP3    H239188   1.018   5.463   1.156 -1.0972 -2.0161 -0.0634
 5877TIP3   OH239189   1.498   3.532   7.857 -0.2774  0.0146 -0.2573
 5877TIP3    H139190   1.408   3.534   7.825 -0.7353 -2.9152  0.4709
 5877TIP3    H239191   1.491   3.558   7.949 -0.4604 -0.5150 -0.1161
 5878TIP3   OH239192   6.114   3.161   0.553 -0.1199 -0.2347  0.2363
 5878TIP3    H139193   6.019   3.157   0.551 -0.2146 -0.1064  2.1985
 5878TIP3    H239194   6.143   3.072   0.533 -0.7349 -0.7340  1.4857
 5879TIP3   OH239195   2.784   5.429   2.035 -0.4748 -0.2357 -0.3105
 5879TIP3    H139196   2.779   5.423   2.131 -0.6177  4.0047  0.1569
 5879TIP3    H239197   2.696   5.408   2.005 -1.1016  0.6726  0.7900
 5880TIP3   OH239198   5.881   1.451   7.996 -0.5584  0.3393  0.2540
 5880TIP3    H139199   5.892   1.541   7.965 -2.0144  0.4072 -0.1397
 5880TIP3    H239200   5.954   1.437   8.056  2.2696  0.3247 -2.8972
 5881TIP3   OH239201   6.461   3.412   8.269  0.4676  0.6189  0.4884
 5881TIP3    H139202   6.432   3.322   8.281  0.2201  0.8992  2.2377
 5881TIP3    H239203   6.406   3.464   8.328 -0.5424  2.1787 -1.6856
 5882TIP3   OH239204   0.482   5.808   8.559 -0.2624 -0.3800  0.5114
 5882TIP3    H139205   0.482   5.762   8.475  1.0375 -0.6109  0.6066
 5882TIP3    H239206   0.571   5.845   8.565 -0.4873  0.0093  1.5799
 5883TIP3   OH239207   4.084   2.701   1.612 -0.1598  0.0929  0.0011
 5883TIP3    H139208   4.099   2.608   1.626  1.3525 -0.1897 -2.8042
 5883TIP3    H239209   4.143   2.745   1.674  1.9784 -0.9433 -1.1698
 5884TIP3   OH239210   4.941   3.462   1.027 -0.7788 -0.0720  0.0753
 5884TIP3    H139211   4.884   3.527   0.986 -0.7950 -0.8719 -1.2184
 5884TIP3    H239212   5.007   3.443   0.960 -0.8944 -1.5374  0.3518
 5885TIP3   OH239213   3.443   2.306   0.547  0.0916  0.0499  0.0241
 5885TIP3    H139214   3.381   2.278   0.480  0.7750 -0.7590 -0.2817
 5885TIP3    H239215   3.519   2.337   0.497  0.1134  0.6316  0.4051
 5886TIP3   OH239216   2.082   1.094   8.731  0.2658 -0.1301  0.3385
 5886TIP3    H139217   2.145   1.108   8.661  1.7224  2.9233  2.0601
 5886TIP3    H239218   2.013   1.159   8.715  1.0676  1.2582  2.0663
 5887TIP3   OH239219   1.446   0.105   2.918  0.1802  0.4592  0.4868
 5887TIP3    H139220   1.524   0.129   2.869  0.3436 -0.4687  0.2651
 5887TIP3    H239221   1.469   0.022   2.960 -1.1199 -0.5148 -0.6457
 5888TIP3   OH239222   4.881   0.089   3.393  0.2546  0.3018 -0.6291
 5888TIP3    H139223   4.795   0.097   3.350 -0.8171  0.3596  1.4063
 5888TIP3    H239224   4.918   0.009   3.355 -1.2925 -0.4717 -0.6339
 5889TIP3   OH239225   1.168   5.198   1.609  0.4003  0.0075 -0.3467
 5889TIP3    H139226   1.142   5.286   1.581  0.3996  0.1732  0.1787
 5889TIP3    H239227   1.263   5.196   1.597  0.3272 -0.1414 -0.9671
 5890TIP3   OH239228   2.469   1.384   8.686 -0.3099 -0.3208 -0.4050
 5890TIP3    H139229   2.477   1.369   8.592 -0.8092 -2.9705 -0.0986
 5890TIP3    H239230   2.410   1.315   8.716  1.4518 -0.8153  2.1740
 5891TIP3   OH239231   2.255   3.976   3.090 -0.2499 -0.6479 -0.8480
 5891TIP3    H139232   2.247   4.070   3.108 -1.6449 -1.0686  1.1706
 5891TIP3    H239233   2.306   3.942   3.163 -0.7992 -1.6190 -0.9029
 5892TIP3   OH239234   5.906   3.512   0.617 -0.1268 -0.2992 -0.2731
 5892TIP3    H139235   5.978   3.574   0.610 -0.6588  0.2807 -0.6378
 5892TIP3    H239236   5.835   3.550   0.566 -0.4870 -1.1757 -0.4570
 5893TIP3   OH239237   1.178   6.385   0.156  0.5683 -0.3155  0.3108
 5893TIP3    H139238   1.168   6.316   0.221 -2.1470 -0.0790  0.2576
 5893TIP3    H239239   1.193   6.339   0.074 -0.7355 -0.8565  0.3601
 5894TIP3   OH239240   5.885   4.499   8.108 -0.6912 -0.4487  0.0764
 5894TIP3    H139241   5.826   4.549   8.164 -0.4411  0.7444 -0.7057
 5894TIP3    H239242   5.971   4.541   8.120 -0.5913 -0.3248 -1.0137
 5895TIP3   OH239243   2.179   2.766   0.323 -0.4117 -0.1103 -0.5402
 5895TIP3    H139244   2.164   2.701   0.253 -2.8051  0.9451 -1.0936
 5895TIP3    H239245   2.143   2.725   0.402  1.3496 -0.8668 -0.0691
 5896TIP3   OH239246   3.487   3.267   1.542  0.0288  0.6079  0.2253
 5896TIP3    H139247   3.533   3.312   1.472 -1.3377  1.3084 -0.2710
 5896TIP3    H239248   3.513   3.313   1.622 -0.2822  1.3996 -0.1200
 5897TIP3   OH239249   5.839   6.750   2.761 -0.3527 -0.3025 -0.5108
 5897TIP3    H139250   5.856   6.721   2.851 -1.5694 -1.0157 -0.4873
 5897TIP3    H239251   5.896   6.826   2.749  0.3078 -0.5919  0.6353
 5898TIP3   OH239252   3.503   1.277   2.842 -0.0348  0.2900 -0.2520
 5898TIP3    H139253   3.497   1.353   2.899 -1.4724 -0.7048  1.0118
 5898TIP3    H239254   3.492   1.202   2.901  0.0029 -0.8439 -1.6332
 5899TIP3   OH239255   5.573   6.597   8.616  0.2554  0.5232 -0.0897
 5899TIP3    H139256   5.591   6.633   8.702 -1.0041  1.3078 -0.1231
 5899TIP3    H239257   5.543   6.672   8.565 -0.2785 -0.1761 -0.8277
 5900TIP3   OH239258   6.050   6.319   8.568 -0.3278 -0.3945 -0.5930
 5900TIP3    H139259   6.096   6.376   8.629 -1.4350 -2.2160  2.1692
 5900TIP3    H239260   5.958   6.326   8.593 -0.7026 -1.8799 -1.4154
 5901TIP3   OH239261   1.292   2.617   2.057  0.0338 -0.1560  0.1880
 5901TIP3    H139262   1.373   2.665   2.042 -0.0826  0.0943  0.3497
 5901TIP3    H239263   1.298   2.587   2.148  0.2510 -0.7247 -0.0167
 5902TIP3   OH239264   4.302   2.507   8.638  0.2176  0.0852  0.2026
 5902TIP3    H139265   4.348   2.570   8.582 -0.0792  1.0667  1.0298
 5902TIP3    H239266   4.372   2.460   8.683  0.4315  0.3396  0.1403
 5903TIP3   OH239267   0.974   0.033   0.342  0.0877 -0.0941  0.1414
 5903TIP3    H139268   0.997  -0.039   0.284 -0.9277 -0.2237 -0.1167
 5903TIP3    H239269   0.925   0.094   0.287 -0.8689 -0.2087  0.8193
 5904TIP3   OH239270   3.761   2.021   0.655  0.3005 -0.0907  0.7511
 5904TIP3    H139271   3.770   1.930   0.627 -2.5200  0.2690 -1.8432
 5904TIP3    H239272   3.800   2.072   0.584 -2.3234  0.7450 -0.2007
 5905TIP3   OH239273   0.606   0.182   0.470 -0.0999  0.8677 -0.0625
 5905TIP3    H139274   0.598   0.113   0.404  1.5889  0.6077 -0.0271
 5905TIP3    H239275   0.668   0.244   0.433 -2.0502  2.7691 -0.3775
 5906TIP3   OH239276   2.736   4.000   3.561 -0.9046 -0.0593  0.3237
 5906TIP3    H139277   2.785   4.030   3.485 -1.8320 -0.3493 -0.4037
 5906TIP3    H239278   2.782   3.922   3.591  0.2174  0.7722  0.8706
 5907TIP3   OH239279   0.837   0.997   0.839 -1.0057 -0.0648  0.4377
 5907TIP3    H139280   0.829   0.902   0.840  3.3697 -0.6605 -0.4950
 5907TIP3    H239281   0.886   1.018   0.919 -0.6564  1.2312 -0.0963
 5908TIP3   OH239282   6.585   4.257   7.602  0.3540  0.2999  0.8268
 5908TIP3    H139283   6.643   4.225   7.671 -2.8430 -1.0182  3.1352
 5908TIP3    H239284   6.565   4.180   7.549  0.2008  0.6017  0.4338
 5909TIP3   OH239285   5.798   0.969   0.220  0.0201  0.0103  0.1040
 5909TIP3    H139286   5.870   0.980   0.283 -1.4524  1.2166  1.6524
 5909TIP3    H239287   5.780   0.875   0.220  1.5448 -0.3170 -0.3126
 5910TIP3   OH239288   1.792   2.840   8.636  0.7137  0.0002  0.0025
 5910TIP3    H139289   1.710   2.850   8.685 -0.0087  0.2377 -1.2042
 5910TIP3    H239290   1.800   2.745   8.623  0.8430 -0.0543  0.4516
 5911TIP3   OH239291   6.630   5.776   2.722 -0.4696 -0.4407  0.3159
 5911TIP3    H139292   6.582   5.859   2.719 -0.0940 -0.1886  1.1574
 5911TIP3    H239293   6.717   5.799   2.754  0.4401 -0.8064 -1.7440
 5912TIP3   OH239294   4.848   4.411   8.115 -0.2196  0.4390 -0.1863
 5912TIP3    H139295   4.904   4.378   8.185 -2.2278 -1.3608  0.6878
 5912TIP3    H239296   4.907   4.423   8.041  1.4294 -0.7141  0.8783
 5913TIP3   OH239297   4.031   5.441   2.037  0.4396  0.1747  0.2897
 5913TIP3    H139298   3.988   5.357   2.054  1.9885 -0.6889  0.1188
 5913TIP3    H239299   3.960   5.498   2.008 -0.5259 -1.3003 -0.3972
 5914TIP3   OH239300   4.196   3.934   8.163  0.4138 -0.0878 -0.1945
 5914TIP3    H139301   4.240   3.903   8.084  0.9839  0.8184 -0.2409
 5914TIP3    H239302   4.266   3.954   8.224  0.0469  0.6837 -0.0105
 5915TIP3   OH239303   6.048   0.528   0.603 -0.6262  0.4711 -0.0961
 5915TIP3    H139304   6.124   0.471   0.589 -0.0385  1.2981 -0.3008
 5915TIP3    H239305   5.981   0.493   0.544 -0.6568 -0.6939  0.5919
 5916TIP3   OH239306   4.994   0.557   0.778  0.1756  0.0761 -0.1236
 5916TIP3    H139307   5.037   0.613   0.842  0.6209 -0.7751  0.3240
 5916TIP3    H239308   4.992   0.470   0.818 -0.9524 -0.1377 -0.6051
 5917TIP3   OH239309   5.527   3.871   2.269  0.0832  0.0252 -0.2955
 5917TIP3    H139310   5.517   3.941   2.334  1.7570 -0.0125  0.0561
 5917TIP3    H239311   5.619   3.845   2.276 -0.1240 -1.1522 -1.5115
 5918TIP3   OH239312   5.842   3.107   0.561 -0.0333  0.2095 -0.4578
 5918TIP3    H139313   5.776   3.065   0.616  0.0543  0.4453 -0.1704
 5918TIP3    H239314   5.821   3.079   0.472  0.3287 -0.8561 -0.2235
 5919TIP3   OH239315   4.528   0.395   3.294 -0.1417 -0.4784 -0.0330
 5919TIP3    H139316   4.443   0.438   3.298  1.0247  1.9721 -0.2096
 5919TIP3    H239317   4.571   0.417   3.377 -0.0991 -2.7610  0.6264
 5920TIP3   OH239318   3.987   4.322   1.148  0.1420  0.4281  1.2997
 5920TIP3    H139319   3.931   4.400   1.151 -0.8292  0.1066 -2.7178
 5920TIP3    H239320   4.075   4.356   1.132  0.0668  0.7434  1.5499
 5921TIP3   OH239321   2.177   6.361   2.439 -0.0501  0.3065  0.1356
 5921TIP3    H139322   2.261   6.401   2.461 -0.4056  1.4961 -0.6111
 5921TIP3    H239323   2.129   6.358   2.522 -0.0259  1.4683  0.2078
 5922TIP3   OH239324   2.376   4.902   0.835  0.3179  0.0708 -0.3377
 5922TIP3    H139325   2.308   4.864   0.779  0.7200 -2.8222  0.9794
 5922TIP3    H239326   2.446   4.926   0.775  0.3140 -1.9721 -1.2389
 5923TIP3   OH239327   1.098   0.431   3.007  0.2977 -0.3757 -0.0740
 5923TIP3    H139328   1.008   0.414   3.034 -0.1325  2.1359  0.3224
 5923TIP3    H239329   1.143   0.348   3.018 -1.8351 -1.5513  0.2462
 5924TIP3   OH239330   5.590   6.258   7.934  0.4707  0.5445 -0.6081
 5924TIP3    H139331   5.660   6.266   7.999 -0.5803  1.2745  0.4578
 5924TIP3    H239332   5.551   6.345   7.929 -2.0812 -0.4180  0.8252
 5925TIP3   OH239333   6.341   3.656   1.924  0.0180  0.3273 -0.3815
 5925TIP3    H139334   6.418   3.656   1.981 -0.8504 -0.7894  0.8438
 5925TIP3    H239335   6.369   3.608   1.846  1.0318  1.3380 -0.6663
 5926TIP3   OH239336   5.749   2.988   2.079  0.0268 -0.1552 -0.2608
 5926TIP3    H139337   5.740   3.076   2.115  1.3957  0.0105 -0.2545
 5926TIP3    H239338   5.696   2.989   1.999  0.2491  0.7768 -0.4151
 5927TIP3   OH239339   5.304   5.360   2.673 -0.1319 -0.0039  0.4077
 5927TIP3    H139340   5.397   5.370   2.655 -0.0244 -0.2577  0.7977
 5927TIP3    H239341   5.300   5.331   2.765 -0.6364  0.9045  0.6893
 5928TIP3   OH239342   1.496   4.592   2.253  0.0881 -0.6197 -0.1650
 5928TIP3    H139343   1.443   4.522   2.214  1.1862 -1.4658 -0.1903
 5928TIP3    H239344   1.579   4.550   2.276  0.4968  0.5081  0.5268
 5929TIP3   OH239345   1.419   5.097   0.407  0.3417 -0.4401  0.1858
 5929TIP3    H139346   1.360   5.069   0.336  0.2197 -1.9289  0.8311
 5929TIP3    H239347   1.490   5.143   0.362 -0.3417 -0.2818 -0.7844
 5930TIP3   OH239348   2.919   6.737   7.596  0.2542 -0.2530 -0.4588
 5930TIP3    H139349   2.897   6.809   7.655 -2.1253 -0.4795 -1.0013
 5930TIP3    H239350   2.969   6.676   7.651  0.7111  0.9285  0.4924
 5931TIP3   OH239351   3.531   4.893   3.575  0.2995 -0.3510  0.7604
 5931TIP3    H139352   3.437   4.882   3.588  0.0614 -1.1461 -1.1975
 5931TIP3    H239353   3.541   4.985   3.553 -0.1787 -0.4418  0.0995
 5932TIP3   OH239354   2.116   1.167   8.334  0.6955 -0.3393  0.5944
 5932TIP3    H139355   2.165   1.235   8.287 -0.4169  0.3743  0.4065
 5932TIP3    H239356   2.079   1.112   8.265  0.1470 -0.0719  0.6635
 5933TIP3   OH239357   1.820   1.235   0.360  0.0046  0.0453  0.1873
 5933TIP3    H139358   1.875   1.252   0.284  0.6312 -0.4899  0.5133
 5933TIP3    H239359   1.777   1.319   0.378  0.6191  0.4362 -0.1479
 5934TIP3   OH239360   6.223   2.214   1.059  0.2195  0.4401  0.1692
 5934TIP3    H139361   6.234   2.235   1.152  2.5459 -0.6023  0.2021
 5934TIP3    H239362   6.181   2.128   1.059  2.1246 -0.5424  0.3704
 5935TIP3   OH239363   6.588   5.475   7.525 -0.0993  0.0022  0.0225
 5935TIP3    H139364   6.548   5.394   7.493 -1.3147  0.8899 -0.8042
 5935TIP3    H239365   6.514   5.534   7.538  0.7917  1.0770  0.3454
 5936TIP3   OH239366   0.417   2.002   8.484  0.0741 -0.3296  0.8560
 5936TIP3    H139367   0.426   1.917   8.528  1.9341 -0.6006  0.0426
 5936TIP3    H239368   0.346   1.989   8.421  0.4808 -1.3498  0.5930
 5937TIP3   OH239369   1.395   6.521   8.662  0.0328 -0.1333 -1.0647
 5937TIP3    H139370   1.367   6.593   8.606 -0.7404 -0.6251 -1.3222
 5937TIP3    H239371   1.360   6.443   8.620  0.6973 -0.6429 -0.6826
 5938TIP3   OH239372   4.185   5.271   8.618 -0.2939 -0.9440 -0.2355
 5938TIP3    H139373   4.161   5.359   8.589  1.4181 -0.8934 -1.6689
 5938TIP3    H239374   4.127   5.253   8.692  0.1980  1.9167  0.9722
 5939TIP3   OH239375   4.850   3.393   0.222  0.0739  0.1809 -0.4144
 5939TIP3    H139376   4.806   3.309   0.209  0.3287 -0.0552  0.1874
 5939TIP3    H239377   4.943   3.373   0.205  0.2019  0.2189  0.2196
 5940TIP3   OH239378   3.201   6.089   1.512  0.3609 -0.4658 -0.2635
 5940TIP3    H139379   3.171   6.044   1.591  2.9266 -1.5906  0.1902
 5940TIP3    H239380   3.202   6.182   1.537 -3.9304 -0.0686 -0.8458
 5941TIP3   OH239381   1.845   0.463   7.492  0.7201  0.2444  0.2699
 5941TIP3    H139382   1.819   0.546   7.531  0.3805 -0.4099  1.4993
 5941TIP3    H239383   1.907   0.425   7.554  1.6568  0.0278 -0.7692
 5942TIP3   OH239384   4.485   5.263   1.272  0.1343  0.1002  0.6692
 5942TIP3    H139385   4.516   5.185   1.319 -0.8718  0.6675  2.3237
 5942TIP3    H239386   4.429   5.309   1.334  0.1712  1.8247 -0.5018
 5943TIP3   OH239387   3.263   1.116   3.158  0.3482  0.2493 -0.1613
 5943TIP3    H139388   3.351   1.148   3.138  1.7454 -1.9295  1.9311
 5943TIP3    H239389   3.255   1.124   3.254 -0.8854 -1.5030 -0.0604
 5944TIP3   OH239390   3.234   6.140   2.207  0.6899  0.1827 -0.0504
 5944TIP3    H139391   3.205   6.074   2.270  0.2371 -0.7155 -1.1639
 5944TIP3    H239392   3.154   6.189   2.185  0.5329 -0.4690 -1.0095
 5945TIP3   OH239393   4.204   2.280   2.632  0.4579 -0.0430  1.0587
 5945TIP3    H139394   4.114   2.247   2.637  0.6754 -0.7844  0.2860
 5945TIP3    H239395   4.199   2.353   2.569  0.2518  0.4692  1.6554
 5946TIP3   OH239396   2.684   3.482   2.086 -0.6364  0.2722  0.1153
 5946TIP3    H139397   2.594   3.509   2.069 -0.1792  1.4738 -0.4998
 5946TIP3    H239398   2.736   3.531   2.023  0.5522  0.3727  1.1384
 5947TIP3   OH239399   0.532   3.973   0.977 -0.1962 -0.2981  0.0302
 5947TIP3    H139400   0.574   3.896   1.013 -0.7428 -0.9444 -0.6610
 5947TIP3    H239401   0.465   3.938   0.917 -0.3663  0.7059 -0.3943
 5948TIP3   OH239402   3.440   1.165   2.337  0.1738  0.2893  0.1883
 5948TIP3    H139403   3.440   1.246   2.389  0.3229  0.3806  0.0462
 5948TIP3    H239404   3.517   1.117   2.367  0.7928  0.7628 -0.5986
 5949TIP3   OH239405   1.754   2.451   1.289 -0.8030 -0.4310 -0.1141
 5949TIP3    H139406   1.741   2.544   1.306 -0.1332 -0.2673 -0.5032
 5949TIP3    H239407   1.745   2.410   1.376 -2.8849 -0.2378 -0.1709
 5950TIP3   OH239408   5.440   3.188   7.125  0.0039  0.3926  0.2820
 5950TIP3    H139409   5.465   3.277   7.102 -0.0802  0.2563 -0.3499
 5950TIP3    H239410   5.513   3.134   7.095 -0.4081  0.1421 -0.2819
 5951TIP3   OH239411   2.229   3.324   8.095 -0.5499 -0.0654  0.5238
 5951TIP3    H139412   2.267   3.267   8.028  0.9377  1.6257 -0.1440
 5951TIP3    H239413   2.298   3.333   8.161  0.5150  3.2812 -0.8342
 5952TIP3   OH239414   3.058   0.471   1.573 -0.2197 -0.2738  0.4722
 5952TIP3    H139415   3.116   0.397   1.557  0.6166  0.6126 -0.8454
 5952TIP3    H239416   3.046   0.512   1.487 -0.9556  0.8911  1.0939
 5953TIP3   OH239417   2.985   6.523   8.088 -0.2083  0.4736  0.3911
 5953TIP3    H139418   2.958   6.445   8.136  0.3350  0.1852  0.2373
 5953TIP3    H239419   3.030   6.490   8.010  0.0173  0.9365  0.3166
 5954TIP3   OH239420   4.398   2.550   3.657  0.3692 -0.3244 -0.2126
 5954TIP3    H139421   4.438   2.526   3.740 -0.2176 -0.4640  0.0279
 5954TIP3    H239422   4.411   2.473   3.601  0.8999 -0.1737 -0.3074
 5955TIP3   OH239423   1.347   0.016   8.887 -0.1116 -0.2040 -0.1845
 5955TIP3    H139424   1.440   0.029   8.907  0.3714 -1.0397 -1.7581
 5955TIP3    H239425   1.347  -0.050   8.818 -1.9809 -1.8774  1.2922
 5956TIP3   OH239426   6.287   1.248   2.225 -0.1623 -0.3377  0.3181
 5956TIP3    H139427   6.245   1.168   2.254  1.0188 -0.8269  0.7247
 5956TIP3    H239428   6.376   1.243   2.259  0.4392  0.3733 -1.0332
 5957TIP3   OH239429   1.881   5.147   1.752 -0.6562 -0.0279  0.1874
 5957TIP3    H139430   1.876   5.051   1.757  1.0874 -0.2378 -1.1363
 5957TIP3    H239431   1.963   5.168   1.798 -2.2529  1.1174  2.7097
 5958TIP3   OH239432   6.155   6.035   7.743  0.6142  0.3229 -0.5215
 5958TIP3    H139433   6.103   5.960   7.714  0.5926  0.0464  0.1955
 5958TIP3    H239434   6.236   5.996   7.776 -0.5071  0.2861  2.4933
 5959TIP3   OH239435   0.870   5.876   2.759 -0.2223 -0.5439  0.2311
 5959TIP3    H139436   0.832   5.845   2.677  0.2526  0.3057 -0.3255
 5959TIP3    H239437   0.796   5.885   2.818 -0.4260 -2.2555  0.2620
 5960TIP3   OH239438   1.479   3.589   1.465  0.6971  0.5167 -0.1432
 5960TIP3    H139439   1.551   3.526   1.471  0.3705  0.1417 -0.0709
 5960TIP3    H239440   1.403   3.535   1.445  0.4794  0.9373 -0.4533
 5961TIP3   OH239441   4.751   5.847   3.635 -0.7125  0.1671  0.3630
 5961TIP3    H139442   4.846   5.851   3.647 -0.7024 -0.4169  0.5211
 5961TIP3    H239443   4.727   5.758   3.661 -1.0297 -0.3723 -1.6178
 5962TIP3   OH239444   2.529   6.383   2.678  0.0960  0.6428  0.0925
 5962TIP3    H139445   2.608   6.388   2.732  1.8305 -0.7034 -2.1111
 5962TIP3    H239446   2.500   6.293   2.685  0.5363  0.3524 -1.3372
 5963TIP3   OH239447   2.338   0.138   8.154 -0.5689 -0.4671 -0.0716
 5963TIP3    H139448   2.346   0.219   8.204 -0.0338 -0.6269  0.1093
 5963TIP3    H239449   2.374   0.159   8.068 -0.3903 -0.5239 -0.0112
 5964TIP3   OH239450   1.515   4.507   8.783 -0.4973 -0.1063  0.3035
 5964TIP3    H139451   1.454   4.464   8.723 -1.4384  2.2939 -0.5859
 5964TIP3    H239452   1.469   4.505   8.867 -0.6611 -0.5126  0.2109
 5965TIP3   OH239453   1.914   2.965   1.341  0.6124  0.0500  0.1749
 5965TIP3    H139454   1.928   2.934   1.252  0.9440  1.8223 -0.4273
 5965TIP3    H239455   1.926   2.887   1.396  1.2281 -0.8976 -1.2517
 5966TIP3   OH239456   6.118   1.357   1.819 -0.0234 -0.0866  0.2492
 5966TIP3    H139457   6.171   1.403   1.753  0.6758  0.0089  0.8656
 5966TIP3    H239458   6.057   1.303   1.768  1.3419 -0.9765 -0.4933
 5967TIP3   OH239459   0.978   2.072   0.369 -0.0949 -0.3306 -0.0914
 5967TIP3    H139460   0.980   1.981   0.337 -2.2697 -0.1754 -0.8369
 5967TIP3    H239461   0.893   2.080   0.411  0.9454  0.7788  1.9280
 5968TIP3   OH239462   3.663   4.338   8.830  0.0811 -0.0835  0.4456
 5968TIP3    H139463   3.737   4.288   8.796 -0.1472 -0.0094 -0.1650
 5968TIP3    H239464   3.619   4.278   8.890  0.1954 -0.3855  0.2266
 5969TIP3   OH239465   1.072   3.643   8.109  0.2306  0.3956 -0.1860
 5969TIP3    H139466   0.995   3.616   8.158 -0.3410  0.2849 -1.1186
 5969TIP3    H239467   1.056   3.735   8.086  1.6325  1.2638  1.9512
 5970TIP3   OH239468   6.319   5.631   1.312 -0.0819 -0.1375  0.3893
 5970TIP3    H139469   6.410   5.653   1.294  0.0196 -0.6046  0.3183
 5970TIP3    H239470   6.296   5.684   1.389  0.2490 -0.0201  0.4075
 5971TIP3   OH239471   4.450   4.923   2.108  0.1213 -0.1049  0.7216
 5971TIP3    H139472   4.459   5.009   2.069 -1.4763 -0.1163  0.3009
 5971TIP3    H239473   4.499   4.865   2.050 -1.0153  0.1117 -0.4918
 5972TIP3   OH239474   1.776   4.163   2.005 -0.0640 -0.1988 -0.4712
 5972TIP3    H139475   1.681   4.167   1.991  0.0424  0.4188 -1.0813
 5972TIP3    H239476   1.809   4.119   1.928  0.1272 -0.6260 -0.1458
 5973TIP3   OH239477   3.719   3.453   8.399 -0.0968 -0.0996  0.0233
 5973TIP3    H139478   3.701   3.541   8.367 -1.1975 -0.1111  0.5308
 5973TIP3    H239479   3.634   3.408   8.393  0.8603 -1.7628 -2.1293
 5974TIP3   OH239480   4.564   4.747   7.840  0.0884 -0.2276  0.3819
 5974TIP3    H139481   4.568   4.679   7.772 -0.2422  0.9942 -0.9156
 5974TIP3    H239482   4.541   4.700   7.920 -0.5172 -1.5932 -0.5552
 5975TIP3   OH239483   2.810   0.789   1.580 -0.2257  0.6009 -0.1441
 5975TIP3    H139484   2.818   0.699   1.610 -1.2532  0.3923 -0.4518
 5975TIP3    H239485   2.722   0.794   1.542 -1.0987  2.3419  1.9215
 5976TIP3   OH239486   0.614   2.601   8.434  0.4865  0.3777  0.1338
 5976TIP3    H139487   0.662   2.673   8.473  5.1839 -2.1984 -0.0797
 5976TIP3    H239488   0.565   2.562   8.507  1.1362  1.4227  1.1631
 5977TIP3   OH239489   1.932   3.892   1.204  0.3331  0.1390 -0.0344
 5977TIP3    H139490   1.981   3.848   1.273  0.8531  0.7641  0.0123
 5977TIP3    H239491   1.956   3.845   1.124 -1.7731 -1.8474  0.3989
 5978TIP3   OH239492   1.946   4.747   1.588  0.3688 -0.2787 -0.7054
 5978TIP3    H139493   1.863   4.745   1.539  0.3174  0.1434 -0.6384
 5978TIP3    H239494   1.941   4.670   1.645 -1.3569  1.3466  1.5224
 5979TIP3   OH239495   4.305   4.287   1.409 -0.0893 -0.3180 -0.6155
 5979TIP3    H139496   4.218   4.322   1.425 -0.4584 -1.6775  0.5192
 5979TIP3    H239497   4.364   4.358   1.433 -0.8340 -0.1851  0.9190
 5980TIP3   OH239498   4.225   6.165   0.440  0.0847 -0.0945 -0.2550
 5980TIP3    H139499   4.144   6.217   0.443 -0.4769 -0.9875  1.3908
 5980TIP3    H239500   4.250   6.154   0.532  1.9305 -0.1105 -0.7171
 5981TIP3   OH239501   0.407   2.812   1.117  0.4809  0.3862 -0.0175
 5981TIP3    H139502   0.463   2.879   1.077  1.2492 -0.4461 -0.3818
 5981TIP3    H239503   0.369   2.855   1.194 -1.1867  2.0959 -1.6814
 5982TIP3   OH239504   6.342   5.260   8.256 -0.1269 -0.1046 -0.1292
 5982TIP3    H139505   6.428   5.267   8.296 -0.0371  0.3297 -0.4017
 5982TIP3    H239506   6.281   5.261   8.330 -0.0866  2.5189 -0.0558
 5983TIP3   OH239507   4.342   4.910   1.167  0.2999 -0.4556  0.3054
 5983TIP3    H139508   4.388   4.895   1.084  2.0615  0.7443  0.9918
 5983TIP3    H239509   4.323   4.822   1.200  2.2942 -1.0447  0.0339
 5984TIP3   OH239510   4.081   4.683   7.807  0.0117 -0.2335  0.1653
 5984TIP3    H139511   4.123   4.716   7.728 -0.3428  0.0408  0.0907
 5984TIP3    H239512   4.088   4.755   7.870 -0.5364 -0.1062  0.0841
 5985TIP3   OH239513   1.993   1.272   0.154  0.2853 -0.4237  0.0981
 5985TIP3    H139514   2.040   1.318   0.085 -2.5555  0.5787 -1.3543
 5985TIP3    H239515   1.988   1.181   0.124  0.2610 -0.2756 -0.3535
 5986TIP3   OH239516   2.897   2.418   3.371  0.3155  0.2180 -0.0125
 5986TIP3    H139517   2.826   2.354   3.376  0.9547 -0.4539  0.8554
 5986TIP3    H239518   2.888   2.458   3.284  1.5224 -3.0208 -1.8361
 5987TIP3   OH239519   6.077   1.964   1.371  0.8194 -0.1377  0.4736
 5987TIP3    H139520   6.014   2.004   1.311  0.8025  0.8353  1.1249
 5987TIP3    H239521   6.033   1.961   1.455  0.8480 -1.5024  0.4775
 5988TIP3   OH239522   6.695   4.798   2.765 -0.7506 -0.0404  0.1190
 5988TIP3    H139523   6.669   4.743   2.839  0.3232  0.0181  0.5618
 5988TIP3    H239524   6.755   4.863   2.803  0.0195 -0.1689 -0.8225
 5989TIP3   OH239525   5.150   1.667   0.399  0.1599 -0.4080  0.7605
 5989TIP3    H139526   5.080   1.630   0.345  0.9342 -0.6456 -0.1078
 5989TIP3    H239527   5.229   1.622   0.369  0.6808 -0.1822  1.7584
 5990TIP3   OH239528   1.945   6.536   2.496  0.5322  0.2364  0.0288
 5990TIP3    H139529   1.976   6.626   2.508  1.2314 -0.1690  1.4643
 5990TIP3    H239530   2.017   6.492   2.451  0.4254  0.2567 -0.1613
 5991TIP3   OH239531   1.248   0.154   0.268  0.3463 -0.4320  0.2085
 5991TIP3    H139532   1.215   0.074   0.310 -1.2355 -0.2483 -0.5821
 5991TIP3    H239533   1.338   0.134   0.245  0.1119 -1.8353  0.4050
 5992TIP3   OH239534   1.311   3.392   1.334  0.4729 -0.5602  0.3419
 5992TIP3    H139535   1.268   3.372   1.251 -0.3335  2.0283  0.0612
 5992TIP3    H239536   1.285   3.320   1.392 -2.8980 -0.0189 -0.3113
 5993TIP3   OH239537   0.953   0.754   0.004 -0.0619 -0.1315  0.1960
 5993TIP3    H139538   0.945   0.741  -0.090 -0.8276 -1.6047  0.4431
 5993TIP3    H239539   0.883   0.701   0.042 -0.4966  1.3201  1.5566
 5994TIP3   OH239540   3.536   6.171   8.743 -0.2982 -0.0464  0.5971
 5994TIP3    H139541   3.478   6.205   8.811 -1.7834  0.6366 -0.9108
 5994TIP3    H239542   3.573   6.249   8.702 -0.8732 -0.3507 -0.5410
 5995TIP3   OH239543   5.750   3.229   2.223  0.6205 -0.1290 -1.1047
 5995TIP3    H139544   5.839   3.262   2.234  0.6354 -0.8080  1.6886
 5995TIP3    H239545   5.697   3.282   2.283 -0.0585 -2.3820  0.4286
 5996TIP3   OH239546   3.018   3.302   3.305 -0.3119 -0.1340 -0.0645
 5996TIP3    H139547   3.103   3.335   3.331 -0.1008 -0.5001 -0.2814
 5996TIP3    H239548   2.981   3.263   3.385  0.2290 -1.0342 -0.2367
 5997TIP3   OH239549   6.389   5.254   1.605 -0.2296  0.0300 -0.1644
 5997TIP3    H139550   6.373   5.180   1.664  1.1835 -1.1000 -1.1273
 5997TIP3    H239551   6.337   5.234   1.527  0.6485 -0.2986 -0.6790
 5998TIP3   OH239552   1.014   5.572   7.589 -0.2196  0.1907 -0.3738
 5998TIP3    H139553   0.927   5.610   7.606 -0.6575 -0.7630 -0.3831
 5998TIP3    H239554   1.055   5.632   7.527 -0.3339  1.3807  0.6650
 5999TIP3   OH239555   0.890   6.403   0.516  0.0188  0.0763 -0.4367
 5999TIP3    H139556   0.930   6.397   0.603 -0.0051  0.1153 -0.4231
 5999TIP3    H239557   0.853   6.491   0.512 -0.5706 -0.1578 -0.2309
 6000TIP3   OH239558   2.453   2.273   8.756 -0.0937 -0.2044 -0.5735
 6000TIP3    H139559   2.525   2.263   8.694  1.3528 -0.6029  1.1035
 6000TIP3    H239560   2.393   2.201   8.734  1.0703 -1.1867 -0.6467
 6001TIP3   OH239561   5.451   4.397   0.835 -0.1679 -0.1265 -0.3264
 6001TIP3    H139562   5.376   4.436   0.880 -0.3697  0.0879 -0.8397
 6001TIP3    H239563   5.416   4.369   0.750 -0.0175 -1.3953  0.0117
 6002TIP3   OH239564   4.381   0.549   1.970 -0.0383  0.2517 -0.2135
 6002TIP3    H139565   4.407   0.594   1.890 -0.6428 -0.2977 -0.7367
 6002TIP3    H239566   4.370   0.619   2.035 -0.5704  0.8241 -0.9031
 6003TIP3   OH239567   2.737   0.957   8.249  0.3161 -0.5585 -0.1914
 6003TIP3    H139568   2.799   1.025   8.224  0.2182  0.1892  1.4672
 6003TIP3    H239569   2.652   1.000   8.248  0.4222 -0.1669  2.3743
 6004TIP3   OH239570   4.760   4.410   2.111  0.0389  0.4290 -0.1976
 6004TIP3    H139571   4.841   4.462   2.107 -0.4879  1.3644  0.7535
 6004TIP3    H239572   4.737   4.410   2.204  0.9224 -2.9899  0.1473
 6005TIP3   OH239573   2.624   4.272   8.291  0.2529  0.1983  0.6807
 6005TIP3    H139574   2.630   4.324   8.210 -0.3542  0.3570  0.7335
 6005TIP3    H239575   2.661   4.187   8.267  3.4710  1.3258  1.2214
 6006TIP3   OH239576   4.078   2.797   2.399 -0.4611 -0.1145  0.4156
 6006TIP3    H139577   4.166   2.769   2.422  0.2002  0.4517 -1.2810
 6006TIP3    H239578   4.023   2.766   2.471  1.1553 -0.1884  1.6660
 6007TIP3   OH239579   2.285   2.945   7.381  0.0355  0.0600 -0.0464
 6007TIP3    H139580   2.192   2.944   7.402 -0.6769  0.6985 -2.7893
 6007TIP3    H239581   2.306   3.037   7.365  0.3634 -0.3154 -2.1997
 6008TIP3   OH239582   6.666   0.477   3.162 -0.0388 -0.1896 -0.5903
 6008TIP3    H139583   6.701   0.537   3.227  0.9051 -1.6860  0.3504
 6008TIP3    H239584   6.743   0.442   3.116 -0.2365 -2.7576  0.8221
 6009TIP3   OH239585   4.585   2.988   0.921  0.2998  0.1065  0.6709
 6009TIP3    H139586   4.624   3.068   0.884  2.0419 -0.2881  1.5445
 6009TIP3    H239587   4.616   2.918   0.864 -1.4875  0.0379 -0.2858
 6010TIP3   OH239588   0.627   3.480   0.880  0.1862  0.2320  0.1736
 6010TIP3    H139589   0.627   3.560   0.933  4.6220  1.5540 -1.3788
 6010TIP3    H239590   0.608   3.511   0.791 -0.3952 -0.8524 -0.0929
 6011TIP3   OH239591   2.222   4.379   2.299 -0.2258 -0.4086 -0.1900
 6011TIP3    H139592   2.317   4.365   2.293 -0.4503 -2.3873  0.1526
 6011TIP3    H239593   2.188   4.345   2.217 -0.5262  2.0221 -1.1345
 6012TIP3   OH239594   2.668   4.288   1.180 -0.1937 -0.6890  0.0031
 6012TIP3    H139595   2.593   4.326   1.226 -0.5528 -0.2577 -0.9099
 6012TIP3    H239596   2.741   4.296   1.242 -0.0838  2.1367 -0.3545
 6013TIP3   OH239597   5.406   5.335   2.257 -0.4130  1.1687  0.7371
 6013TIP3    H139598   5.318   5.313   2.286  0.1924  0.1513  1.9008
 6013TIP3    H239599   5.426   5.418   2.301 -0.1609  0.5232  1.8713
 6014TIP3   OH239600   1.808   5.191   7.970 -0.4692  0.2691  0.2344
 6014TIP3    H139601   1.862   5.251   8.021  0.7874 -1.7555  1.4180
 6014TIP3    H239602   1.870   5.138   7.921 -1.5236 -0.2625 -0.5715
 6015TIP3   OH239603   4.883   1.355   8.873  0.2757  0.5372  0.8963
 6015TIP3    H139604   4.788   1.360   8.884  0.1861  0.2497  0.2843
 6015TIP3    H239605   4.917   1.339   8.961 -0.2625  0.3719  1.0743
 6016TIP3   OH239606   5.303   5.982   2.592  0.1488 -0.1587  0.0742
 6016TIP3    H139607   5.321   5.915   2.526  0.2124 -0.0069 -0.0609
 6016TIP3    H239608   5.211   5.969   2.615 -0.0728  0.2569 -0.5686
 6017TIP3   OH239609   3.124   1.167   1.364  0.7223  0.5078  0.7330
 6017TIP3    H139610   3.044   1.167   1.416 -0.6532  0.0622 -1.3063
 6017TIP3    H239611   3.166   1.083   1.385  0.3951  0.5072  1.4112
 6018TIP3   OH239612   5.939   3.036   0.945  0.1597  0.4001  0.0325
 6018TIP3    H139613   5.904   3.109   0.997 -0.9206 -0.2324  0.2315
 6018TIP3    H239614   6.021   3.070   0.908 -0.3339  1.7342  0.0889
 6019TIP3   OH239615   1.074   4.705   2.181  0.3406 -0.2853  0.0009
 6019TIP3    H139616   1.112   4.793   2.185  3.0283 -1.2930 -1.2530
 6019TIP3    H239617   1.026   4.696   2.263 -0.6345  2.5664 -0.1421
 6020TIP3   OH239618   2.885   1.763   2.230  0.3153  0.1202 -0.3363
 6020TIP3    H139619   2.943   1.689   2.212  0.1706 -0.4257  1.2875
 6020TIP3    H239620   2.831   1.770   2.152  1.0734 -0.7862 -0.9681
 6021TIP3   OH239621   4.200   0.367   8.481  0.0597 -0.4446  0.0006
 6021TIP3    H139622   4.200   0.455   8.519  1.2445 -0.7841  0.8498
 6021TIP3    H239623   4.270   0.369   8.415  0.1333 -0.7687  0.0667
 6022TIP3   OH239624   4.900   3.691   8.538  0.2965 -0.0688  0.0663
 6022TIP3    H139625   4.876   3.673   8.629 -0.2074 -0.2987 -0.1142
 6022TIP3    H239626   4.903   3.787   8.533 -1.9942  0.0304 -0.2646
 6023TIP3   OH239627   3.378   0.986   0.877 -0.6446  0.5676  0.3984
 6023TIP3    H139628   3.297   0.983   0.827 -0.0116  1.4638 -0.7446
 6023TIP3    H239629   3.351   0.991   0.969 -1.8400 -0.9115  0.1553
 6024TIP3   OH239630   2.016   5.265   0.967  0.2383 -0.7099 -1.0617
 6024TIP3    H139631   2.026   5.324   0.892  0.6079 -0.9913 -1.2394
 6024TIP3    H239632   1.927   5.231   0.958 -0.0343 -0.0649 -0.8671
 6025TIP3   OH239633   5.889   2.384   7.830 -0.0816  0.2776  0.2038
 6025TIP3    H139634   5.934   2.409   7.749  0.2241 -1.0620 -0.0652
 6025TIP3    H239635   5.891   2.464   7.884  0.0502  1.0784 -0.9444
 6026TIP3   OH239636   2.640   2.492   1.018  0.0830 -0.0498  0.5035
 6026TIP3    H139637   2.641   2.539   1.101 -0.6420  0.0878  0.4445
 6026TIP3    H239638   2.576   2.540   0.964  1.1444  0.3626 -0.4226
 6027TIP3   OH239639   6.079   2.234   2.196  0.2984  0.1613  0.2826
 6027TIP3    H139640   6.160   2.189   2.176 -0.4707 -0.6158 -1.2761
 6027TIP3    H239641   6.011   2.179   2.157 -1.2583 -0.5249  3.6131
 6028TIP3   OH239642   2.150   4.942   7.846  0.2924 -0.0289  0.1865
 6028TIP3    H139643   2.126   4.876   7.780  2.5976  1.7959 -2.7497
 6028TIP3    H239644   2.246   4.938   7.851  0.2461  0.3918  3.0275
 6029TIP3   OH239645   4.139   3.172   0.862  0.8767  0.1197  0.1760
 6029TIP3    H139646   4.105   3.139   0.945 -1.3835  0.3519 -0.6086
 6029TIP3    H239647   4.183   3.254   0.885  2.1864 -0.8616  1.4057
 6030TIP3   OH239648   4.659   1.282   0.618  0.2263 -0.0028  0.0611
 6030TIP3    H139649   4.726   1.239   0.670  0.8328  1.6984  0.7792
 6030TIP3    H239650   4.694   1.283   0.529  2.3272  2.7839  0.7535
 6031TIP3   OH239651   5.497   0.314   3.287  0.3262 -0.0036 -0.0466
 6031TIP3    H139652   5.536   0.391   3.328  0.3160  0.0167 -0.0754
 6031TIP3    H239653   5.436   0.349   3.222  2.1071 -0.0016 -1.8104
 6032TIP3   OH239654   3.865   4.931   0.219 -0.5432 -0.0261  0.0474
 6032TIP3    H139655   3.875   4.851   0.272 -0.9175  0.4247  0.8228
 6032TIP3    H239656   3.784   4.971   0.252  1.7347  2.8894  2.6569
 6033TIP3   OH239657   0.263   0.775   1.175  0.4140 -0.3854  0.0641
 6033TIP3    H139658   0.198   0.706   1.190 -0.1636 -0.1275 -1.1339
 6033TIP3    H239659   0.211   0.854   1.159  1.0577  0.1495  0.5564
 6034TIP3   OH239660   6.036   3.375   8.535  0.6609 -0.1059 -0.0866
 6034TIP3    H139661   5.997   3.406   8.617 -0.0824  0.0032 -0.4817
 6034TIP3    H239662   6.075   3.290   8.558 -0.1934 -0.4283  0.2054
 6035TIP3   OH239663   2.515   2.492   0.414  0.3610 -0.3948  0.0698
 6035TIP3    H139664   2.594   2.489   0.469  1.1480  0.4460 -0.9749
 6035TIP3    H239665   2.483   2.402   0.413  0.8670 -0.6076  1.1234
 6036TIP3   OH239666   6.063   5.927   1.394 -0.0628 -0.4823  0.4810
 6036TIP3    H139667   6.137   5.933   1.454 -0.2972  2.1332  0.6147
 6036TIP3    H239668   5.986   5.939   1.449 -0.2395  3.0311 -0.3278
 6037TIP3   OH239669   1.698   5.958   2.066  0.0951 -0.0415  0.1428
 6037TIP3    H139670   1.639   5.900   2.115 -1.0329  1.0313  0.1117
 6037TIP3    H239671   1.657   6.044   2.071  1.8173  0.8154  0.3368
 6038TIP3   OH239672   5.194   5.041   1.933  0.1106  0.0059 -0.4135
 6038TIP3    H139673   5.177   5.052   2.026 -2.2604 -0.6862 -0.6894
 6038TIP3    H239674   5.118   5.079   1.890  1.7220  1.4352 -2.1709
 6039TIP3   OH239675   5.071   6.208   8.499  0.1276 -0.3379  0.0489
 6039TIP3    H139676   5.080   6.146   8.427  0.7625 -0.5961  0.3395
 6039TIP3    H239677   5.132   6.279   8.477  0.1420 -0.2997  0.2054
 6040TIP3   OH239678   1.087   3.562   2.474 -0.2957  0.9028  0.9344
 6040TIP3    H139679   1.142   3.584   2.399 -2.7407  0.1075 -1.2600
 6040TIP3    H239680   1.057   3.647   2.507 -0.7544  1.2546 -0.3120
 6041TIP3   OH239681   4.894   1.687   8.237  0.7841 -0.0551 -0.0312
 6041TIP3    H139682   4.808   1.668   8.198  1.4232 -0.5761 -1.2733
 6041TIP3    H239683   4.932   1.600   8.252  1.5863  0.1788 -0.6705
 6042TIP3   OH239684   6.643   6.635   8.001  0.2180 -0.4295  0.0076
 6042TIP3    H139685   6.715   6.676   8.048  0.3384 -0.3514 -0.2413
 6042TIP3    H239686   6.614   6.564   8.058  0.0604 -0.0484  0.4066
 6043TIP3   OH239687   1.754   6.336   8.552 -0.3340 -0.5697  0.6177
 6043TIP3    H139688   1.840   6.373   8.529 -0.3121 -1.0103 -0.0242
 6043TIP3    H239689   1.732   6.379   8.634 -1.3551  2.6758 -1.1472
 6044TIP3   OH239690   3.397   4.152   8.005  0.5032 -0.0423 -0.1262
 6044TIP3    H139691   3.328   4.156   8.071  0.6369 -1.6051  0.1563
 6044TIP3    H239692   3.351   4.135   7.923  0.3468  1.7824 -0.4491
 6045TIP3   OH239693   1.254   2.696   8.328 -0.0258 -0.1213 -0.0611
 6045TIP3    H139694   1.331   2.685   8.384  0.2749  0.9426 -0.2447
 6045TIP3    H239695   1.223   2.607   8.312  0.0232 -0.4741  1.5978
 6046TIP3   OH239696   1.476   2.698   8.483 -0.5596 -0.1745 -0.0754
 6046TIP3    H139697   1.536   2.668   8.415 -0.0022  0.4820  0.1123
 6046TIP3    H239698   1.488   2.635   8.555  1.0365  0.7598  0.5463
 6047TIP3   OH239699   6.552   2.101   8.188  0.4724 -0.1411  0.2840
 6047TIP3    H139700   6.631   2.140   8.227  0.8015 -1.6414  1.1721
 6047TIP3    H239701   6.585   2.042   8.121 -0.0727  1.9385 -1.9719
 6048TIP3   OH239702   3.648   5.897   1.369 -0.2804  0.6717  0.0422
 6048TIP3    H139703   3.713   5.963   1.346  0.3068  0.0391 -0.1606
 6048TIP3    H239704   3.698   5.815   1.375 -0.4380  0.6961  3.2711
 6049TIP3   OH239705   6.731   1.810   8.149  0.4320  0.3665  0.1413
 6049TIP3    H139706   6.670   1.795   8.077 -1.2985  0.9418  1.4017
 6049TIP3    H239707   6.813   1.770   8.120 -0.6955 -0.9951 -1.3809
 6050TIP3   OH239708   0.672   0.038   1.847 -0.0716  0.1748 -0.2862
 6050TIP3    H139709   0.641   0.109   1.902  0.5543 -0.1365  0.4835
 6050TIP3    H239710   0.651   0.066   1.758 -0.9191  0.7668  0.0874
 6051TIP3   OH239711   4.660   1.751   7.297  0.2821  0.3791 -0.1469
 6051TIP3    H139712   4.755   1.761   7.284  0.9969 -3.9299  0.0751
 6051TIP3    H239713   4.622   1.770   7.212  1.4375  1.3507 -0.4739
 6052TIP3   OH239714   3.030   0.744   8.749  0.1553  0.4334 -0.0284
 6052TIP3    H139715   3.057   0.794   8.826  2.0529  1.6134 -1.3666
 6052TIP3    H239716   2.941   0.774   8.731  0.1936  1.1644  0.8798
 6053TIP3   OH239717   5.267   4.416   1.050 -0.0205 -0.1459 -0.5804
 6053TIP3    H139718   5.190   4.368   1.080  1.0354 -1.7174 -0.3165
 6053TIP3    H239719   5.320   4.428   1.129 -0.3043  1.5925 -0.6147
 6054TIP3   OH239720   4.053   3.030   8.481 -0.4436  0.4629  0.5581
 6054TIP3    H139721   4.028   2.982   8.561  1.5875  1.9000  2.1783
 6054TIP3    H239722   3.996   3.107   8.481 -0.1617  0.6772  0.8904
 6055TIP3   OH239723   4.769   4.964   0.076  0.0931 -0.4903 -0.5446
 6055TIP3    H139724   4.835   4.895   0.069  0.4957 -0.2719  0.8496
 6055TIP3    H239725   4.818   5.046   0.072 -0.1782 -0.3118 -0.2958
 6056TIP3   OH239726   3.339   3.043   2.650  0.1757 -0.5253 -0.0421
 6056TIP3    H139727   3.246   3.027   2.666  0.4060 -0.2398  1.8236
 6056TIP3    H239728   3.379   3.042   2.737  1.7760  0.2596 -0.7223
 6057TIP3   OH239729   1.615   3.392   2.942 -0.6738  0.0578 -0.5943
 6057TIP3    H139730   1.668   3.323   2.902 -0.1390  0.0906  0.0318
 6057TIP3    H239731   1.569   3.349   3.014 -0.4865  0.3031 -0.3221
 6058TIP3   OH239732   0.551   4.202   2.727  0.2599 -0.5824 -0.0991
 6058TIP3    H139733   0.567   4.219   2.820 -2.1067  1.4356  0.0640
 6058TIP3    H239734   0.597   4.273   2.682 -2.3655  1.3128 -0.0400
 6059TIP3   OH239735   3.838   6.625   8.760  0.1942  0.1186  0.2413
 6059TIP3    H139736   3.911   6.565   8.745 -0.4959 -0.4146 -1.1958
 6059TIP3    H239737   3.819   6.662   8.674  0.4999  2.3312  1.0610
 6060TIP3   OH239738   3.449   3.112   2.350  0.3359 -0.2187  0.6297
 6060TIP3    H139739   3.363   3.094   2.313  0.8070 -0.6624 -0.2943
 6060TIP3    H239740   3.438   3.193   2.399 -0.9334 -0.9934  1.6727
 6061TIP3   OH239741   4.115   0.980   0.811 -0.7738 -0.1450  0.2850
 6061TIP3    H139742   4.051   0.994   0.881 -3.2176 -0.4203 -1.7638
 6061TIP3    H239743   4.108   1.058   0.756  2.2487  0.8121  1.0559
 6062TIP3   OH239744   4.798   5.979   8.632 -0.3723 -0.6533  0.0356
 6062TIP3    H139745   4.818   6.012   8.720 -1.3106 -0.0301  0.0323
 6062TIP3    H239746   4.875   5.927   8.608  0.6241  0.5249  0.5519
 6063TIP3   OH239747   1.783   4.368   0.286 -0.3396  0.3264  0.2895
 6063TIP3    H139748   1.792   4.304   0.215 -0.1449  0.9745 -0.2785
 6063TIP3    H239749   1.871   4.373   0.325  0.2827  1.9245 -1.1543
 6064TIP3   OH239750   2.494   2.080   1.563 -0.0133 -0.4797  0.8164
 6064TIP3    H139751   2.405   2.083   1.527  0.0461 -3.5980  0.1618
 6064TIP3    H239752   2.543   2.029   1.499  1.7920 -0.4110  2.0979
 6065TIP3   OH239753   3.811   3.259   1.453  0.5168 -0.0820 -1.1667
 6065TIP3    H139754   3.781   3.185   1.401 -0.9468 -0.2946 -0.0828
 6065TIP3    H239755   3.736   3.318   1.457  0.7248  0.1309  0.3070
 6066TIP3   OH239756   3.899   5.927   3.195  0.5534  0.1347 -0.5423
 6066TIP3    H139757   3.818   5.940   3.145  0.6241  1.3146 -0.3753
 6066TIP3    H239758   3.925   5.838   3.174 -2.2033 -1.2915  1.4600
 6067TIP3   OH239759   0.301   1.543   7.704  0.2468 -0.0478  0.4892
 6067TIP3    H139760   0.259   1.605   7.645  0.3152 -1.4452 -1.0998
 6067TIP3    H239761   0.280   1.457   7.668  1.5034 -0.9040  1.6821
 6068TIP3   OH239762   4.206   5.310   0.774 -0.4762 -0.3995 -0.2536
 6068TIP3    H139763   4.243   5.286   0.859  1.6445  0.1881 -0.9426
 6068TIP3    H239764   4.194   5.405   0.779  2.4901  0.1736 -1.4977
 6069TIP3   OH239765   3.711   4.632   8.889  0.1543 -0.2152  0.0266
 6069TIP3    H139766   3.652   4.696   8.930 -2.6041 -0.3531 -3.2843
 6069TIP3    H239767   3.654   4.560   8.863  2.9398 -3.5550  2.2958
 6070TIP3   OH239768   2.913   4.221   2.822 -0.1278  0.8723 -0.0356
 6070TIP3    H139769   2.843   4.208   2.759  1.2320 -1.6032 -1.1753
 6070TIP3    H239770   2.868   4.229   2.906 -1.8185  0.5980 -0.8733
 6071TIP3   OH239771   2.181   0.309   0.451  0.3353  0.2753  0.1906
 6071TIP3    H139772   2.148   0.286   0.364  1.3219  0.2817 -0.1992
 6071TIP3    H239773   2.135   0.249   0.511  0.7284 -0.7290 -0.4874
 6072TIP3   OH239774   3.015   6.396   1.226  0.4790  0.3667  0.2524
 6072TIP3    H139775   2.982   6.415   1.314  0.3626  3.3174 -0.3223
 6072TIP3    H239776   2.986   6.471   1.173  1.9861 -0.4893 -1.9191
 6073TIP3   OH239777   3.103   0.876   0.045 -0.1876  0.3695  0.4141
 6073TIP3    H139778   3.057   0.924   0.114 -0.2342  0.0469  0.6122
 6073TIP3    H239779   3.161   0.816   0.092  1.1287  1.3977  0.1693
 6074TIP3   OH239780   2.042   4.576   2.353 -0.1885 -0.0478  0.0084
 6074TIP3    H139781   2.097   4.500   2.336 -0.6438 -0.3597 -0.0917
 6074TIP3    H239782   1.953   4.547   2.334 -0.3773  0.4927  0.0235
 6075TIP3   OH239783   3.508   2.780   2.186 -0.1634  0.2072  0.1125
 6075TIP3    H139784   3.487   2.873   2.186  1.1066  0.5264 -1.0886
 6075TIP3    H239785   3.493   2.752   2.277 -0.5777  1.5626  0.4838
 6076TIP3   OH239786   3.829   2.823   2.924  0.5322 -0.0492  0.0290
 6076TIP3    H139787   3.845   2.769   3.001 -0.8052 -0.7959 -0.1947
 6076TIP3    H239788   3.737   2.846   2.929  0.4553  0.0099 -1.2766
 6077TIP3   OH239789   3.316   0.375   1.859  0.1049  0.3397  0.3307
 6077TIP3    H139790   3.378   0.382   1.787  0.3921  0.7314  0.6120
 6077TIP3    H239791   3.231   0.362   1.817  0.7460 -3.9904 -0.0750
 6078TIP3   OH239792   5.283   1.577   0.713 -0.2343 -0.0591 -0.4798
 6078TIP3    H139793   5.225   1.623   0.774 -1.1989 -0.4414 -1.0821
 6078TIP3    H239794   5.353   1.640   0.694  1.1485 -0.5502  2.4121
 6079TIP3   OH239795   2.907   3.539   7.904 -0.1082 -0.5303 -0.4963
 6079TIP3    H139796   2.912   3.542   7.809  0.3404  0.2747 -0.4535
 6079TIP3    H239797   2.840   3.473   7.922  1.1349 -2.0704 -1.3257
 6080TIP3   OH239798   5.935   4.315   1.367 -0.1292  0.4941  0.0081
 6080TIP3    H139799   5.843   4.338   1.379 -0.1126  1.6258 -1.7934
 6080TIP3    H239800   5.959   4.351   1.282  2.0555  0.4119  0.5177
 6081TIP3   OH239801   1.411   5.459   8.055  0.0351 -0.0311 -0.2667
 6081TIP3    H139802   1.485   5.520   8.064  0.0116 -0.0924  0.3852
 6081TIP3    H239803   1.436   5.402   7.982  1.8203 -1.6843  1.5111
 6082TIP3   OH239804   5.392   1.361   8.686  0.5000  0.1509 -0.4742
 6082TIP3    H139805   5.328   1.402   8.627  0.2244 -0.0800 -0.3400
 6082TIP3    H239806   5.477   1.389   8.652  0.3173  1.1796 -0.1377
 6083TIP3   OH239807   5.509   1.933   1.245  0.4345  0.4419 -0.1640
 6083TIP3    H139808   5.540   1.995   1.311 -0.7133  0.9165 -0.0437
 6083TIP3    H239809   5.421   1.964   1.222  0.0091 -0.8900 -0.4284
 6084TIP3   OH239810   4.902   0.647   1.778 -0.4495 -0.4139 -0.0515
 6084TIP3    H139811   4.987   0.622   1.742 -0.1492 -1.0426  1.0225
 6084TIP3    H239812   4.867   0.565   1.813 -0.5207  0.2305  1.4478
 6085TIP3   OH239813   4.964   2.429   0.366  0.3306  0.7878  0.9752
 6085TIP3    H139814   4.895   2.369   0.336  0.4609  1.3175 -0.4610
 6085TIP3    H239815   4.919   2.490   0.426 -0.1265  0.2340  1.2023
 6086TIP3   OH239816   1.362   4.264   8.174  0.1760 -0.0375  0.4756
 6086TIP3    H139817   1.414   4.327   8.223  1.7129 -0.7574 -0.1670
 6086TIP3    H239818   1.351   4.303   8.088 -1.9746  0.9329  1.1196
 6087TIP3   OH239819   3.184   1.790   7.783  0.0306  0.4310  0.0056
 6087TIP3    H139820   3.164   1.798   7.690 -1.0539 -2.9844 -0.1908
 6087TIP3    H239821   3.099   1.777   7.825  0.5889  0.8674  1.3405
 6088TIP3   OH239822   0.732   1.330   8.468  0.2844  0.3685 -0.2743
 6088TIP3    H139823   0.816   1.339   8.424  0.8561 -0.1372  0.6779
 6088TIP3    H239824   0.754   1.302   8.557 -0.9105 -0.2291 -0.1437
 6089TIP3   OH239825   2.471   4.218   2.924  0.7490 -0.2732 -0.2916
 6089TIP3    H139826   2.416   4.198   2.999 -0.3201  2.4695 -0.2188
 6089TIP3    H239827   2.429   4.175   2.850 -0.2954  0.0380  0.1137
 6090TIP3   OH239828   1.764   5.500   1.626  0.3927  0.3056  0.8527
 6090TIP3    H139829   1.850   5.539   1.613  1.2965 -2.3299 -2.2945
 6090TIP3    H239830   1.782   5.411   1.658 -1.0744 -0.4033 -0.1452
 6091TIP3   OH239831   5.665   3.416   0.953  0.0204  0.4782 -0.0495
 6091TIP3    H139832   5.693   3.379   0.870 -0.4222  2.9151 -1.3731
 6091TIP3    H239833   5.570   3.413   0.950 -0.0578 -1.7015  1.5565
 6092TIP3   OH239834   0.292   6.430   2.264 -0.0063 -0.2853  0.3933
 6092TIP3    H139835   0.370   6.486   2.268 -0.4695  0.3528  0.7386
 6092TIP3    H239836   0.226   6.477   2.315 -1.2815  0.2693 -1.6420
 6093TIP3   OH239837   4.727   1.715   2.447 -0.7097 -0.5136 -0.7246
 6093TIP3    H139838   4.733   1.806   2.476 -1.3606 -0.6007 -0.3043
 6093TIP3    H239839   4.801   1.672   2.490 -1.8656 -0.7174  1.1290
 6094TIP3   OH239840   2.133   3.763   8.253 -0.4012 -0.2410 -0.4828
 6094TIP3    H139841   2.175   3.694   8.305 -0.5749  0.2096  0.2775
 6094TIP3    H239842   2.185   3.768   8.173 -1.6579 -2.7296 -1.5369
 6095TIP3   OH239843   2.379   0.598   0.075 -0.5940 -0.0700  0.3484
 6095TIP3    H139844   2.379   0.693   0.071  0.2969 -0.0327  0.9732
 6095TIP3    H239845   2.404   0.569  -0.013 -0.5092  0.2790  0.2589
 6096TIP3   OH239846   1.628   2.902   0.146  0.3584  0.2843  0.3451
 6096TIP3    H139847   1.694   2.834   0.156  1.9745  1.6376 -0.5292
 6096TIP3    H239848   1.651   2.967   0.212 -0.4395  0.5190  0.3974
 6097TIP3   OH239849   5.681   1.643   1.919 -0.2402  0.4036 -0.3341
 6097TIP3    H139850   5.664   1.732   1.952 -0.9832  0.1757 -0.0864
 6097TIP3    H239851   5.711   1.595   1.996  1.3006  0.7239 -0.7063
 6098TIP3   OH239852   4.674   0.684   2.494  0.1309  0.2898 -0.1786
 6098TIP3    H139853   4.678   0.638   2.410  0.3445 -2.4017  1.2098
 6098TIP3    H239854   4.616   0.631   2.548 -0.2866  2.1576  1.3021
 6099TIP3   OH239855   5.407   0.616   2.744  0.4286  0.5143 -0.4373
 6099TIP3    H139856   5.358   0.685   2.699  1.3640  1.2142 -0.3973
 6099TIP3    H239857   5.432   0.654   2.828 -0.5000 -0.4677  0.3225
 6100TIP3   OH239858   1.892   0.495   0.490 -0.1535  0.3044  0.0412
 6100TIP3    H139859   1.906   0.578   0.534  0.4087 -0.4047  1.2395
 6100TIP3    H239860   1.839   0.444   0.551 -0.4903 -0.2393 -0.6805
 6101TIP3   OH239861   2.887   6.096   8.494  0.3568 -0.2423  0.3228
 6101TIP3    H139862   2.846   6.053   8.419  0.7616  1.0116 -0.6760
 6101TIP3    H239863   2.980   6.100   8.472  0.3170  1.2532  0.2722
 6102TIP3   OH239864   3.669   1.750   8.193 -0.2124 -0.3433 -0.3799
 6102TIP3    H139865   3.643   1.703   8.272 -0.8742 -0.6160 -0.7521
 6102TIP3    H239866   3.663   1.843   8.218  0.5932 -0.4274  0.1932
 6103TIP3   OH239867   6.341   5.585   1.866  0.2334 -1.0984  0.5979
 6103TIP3    H139868   6.329   5.601   1.960 -1.1924  0.6569  0.1494
 6103TIP3    H239869   6.301   5.660   1.823  1.5589 -1.4751 -1.4264
 6104TIP3   OH239870   1.184   0.019   0.933  0.3145  0.2914 -0.3121
 6104TIP3    H139871   1.208   0.075   1.007  1.4465  1.3636 -1.4288
 6104TIP3    H239872   1.151  -0.062   0.973  0.4650  1.0175  1.3434
 6105TIP3   OH239873   3.263   3.408   3.378 -0.7133  0.5199 -0.0526
 6105TIP3    H139874   3.284   3.358   3.457 -3.1330  1.0472  1.0309
 6105TIP3    H239875   3.279   3.499   3.402  1.1239  0.5265 -1.1300
 6106TIP3   OH239876   4.570   4.817   1.451  0.3759  0.2387 -0.0892
 6106TIP3    H139877   4.507   4.888   1.462  1.9666  1.3501  3.6437
 6106TIP3    H239878   4.523   4.738   1.476 -0.4998  0.4636 -0.9767
 6107TIP3   OH239879   6.313   3.765   3.051  0.1694  0.0636 -0.1070
 6107TIP3    H139880   6.408   3.758   3.039  0.1467  1.2658 -1.2561
 6107TIP3    H239881   6.303   3.830   3.121  0.1918  0.6886 -0.6775
 6108TIP3   OH239882   4.726   0.440   1.840 -0.1491 -0.3252 -0.4073
 6108TIP3    H139883   4.734   0.345   1.850  0.6685 -0.2939 -0.7481
 6108TIP3    H239884   4.671   0.451   1.762 -0.3581 -0.5143 -0.2897
 6109TIP3   OH239885   0.193   2.549   2.106  0.6102 -0.9707 -0.3241
 6109TIP3    H139886   0.103   2.552   2.073  0.1869  0.6674  0.8258
 6109TIP3    H239887   0.191   2.485   2.177  0.5071 -1.3915 -0.7037
 6110TIP3   OH239888   5.076   1.947   8.140 -0.0850  0.2393  0.0070
 6110TIP3    H139889   5.107   1.973   8.053 -1.3463 -0.6378 -0.7258
 6110TIP3    H239890   4.983   1.969   8.140 -0.8572 -2.6807 -0.0726
 6111TIP3   OH239891   3.722   2.914   2.624 -0.2562  0.8132 -0.2866
 6111TIP3    H139892   3.679   2.899   2.708  0.5040 -1.2406 -0.1847
 6111TIP3    H239893   3.807   2.951   2.647 -0.4470  1.2139 -0.2236
 6112TIP3   OH239894   4.300   6.597   0.280  0.0012 -0.4042  0.2826
 6112TIP3    H139895   4.207   6.581   0.267 -0.0785  0.0113  0.3338
 6112TIP3    H239896   4.344   6.533   0.224 -0.2637 -2.4431  2.2655
 6113TIP3   OH239897   2.262   0.196   2.131  0.0182  0.1661  0.0990
 6113TIP3    H139898   2.206   0.199   2.209  0.6033  0.1260  0.5260
 6113TIP3    H239899   2.238   0.114   2.087  0.2274 -0.2012  0.6536
 6114TIP3   OH239900   5.764   3.949   1.678  0.1690  0.1646  0.2156
 6114TIP3    H139901   5.799   3.951   1.589 -1.2597  0.4074 -0.3655
 6114TIP3    H239902   5.672   3.971   1.669 -0.1870 -0.5393  1.6744
 6115TIP3   OH239903   0.811   1.890   1.061  0.3689  0.4131 -0.5377
 6115TIP3    H139904   0.862   1.827   1.009  0.0598 -0.5065  0.2418
 6115TIP3    H239905   0.739   1.838   1.097 -0.3358  1.3957 -0.4996
 6116TIP3   OH239906   3.212   1.580   0.660  0.5765 -0.3824  0.1534
 6116TIP3    H139907   3.257   1.514   0.714 -1.7536 -2.0040  0.2683
 6116TIP3    H239908   3.151   1.622   0.721 -1.1945 -1.3714 -0.8535
 6117TIP3   OH239909   3.913   6.087   0.946 -0.1251  0.0228 -0.1557
 6117TIP3    H139910   3.905   6.182   0.954 -1.2573 -0.2443  3.5512
 6117TIP3    H239911   3.981   6.062   1.009  0.1292 -1.6638 -1.0254
 6118TIP3   OH239912   5.082   0.288   0.659  0.1029 -0.4394 -0.0568
 6118TIP3    H139913   5.150   0.277   0.593  0.0247 -0.1097 -0.1931
 6118TIP3    H239914   5.012   0.228   0.632  0.3318 -0.7701  0.0776
 6119TIP3   OH239915   3.271   1.721   1.766  0.4285 -0.5650  0.0784
 6119TIP3    H139916   3.305   1.634   1.742 -1.4353 -1.1046 -0.8132
 6119TIP3    H239917   3.299   1.778   1.694 -0.0722 -0.8771 -0.3680
 6120TIP3   OH239918   5.546   4.192   2.113 -0.5413  0.0351  0.0232
 6120TIP3    H139919   5.486   4.265   2.103  1.7453  1.9962 -0.2133
 6120TIP3    H239920   5.587   4.206   2.199  1.1971  0.1116 -0.7680
 6121TIP3   OH239921   2.749   5.388   2.319 -0.2346 -0.4162  0.3837
 6121TIP3    H139922   2.703   5.434   2.389  0.9848  0.4857  0.6141
 6121TIP3    H239923   2.718   5.297   2.325 -0.6045 -0.2131  1.6839
 6122TIP3   OH239924   5.308   3.056   7.925  0.3408  0.6487 -0.1984
 6122TIP3    H139925   5.266   3.124   7.978  0.3550 -0.0977  0.8029
 6122TIP3    H239926   5.236   3.008   7.886  0.2091 -0.4424  1.2790
 6123TIP3   OH239927   5.686   3.056   0.325 -0.6804  0.3357  0.2053
 6123TIP3    H139928   5.632   2.978   0.325 -1.3717  0.8052  0.7151
 6123TIP3    H239929   5.633   3.123   0.281 -0.9122  1.0569  1.5346
 6124TIP3   OH239930   5.655   5.087   7.745  0.0108  0.2968  0.1948
 6124TIP3    H139931   5.730   5.071   7.689 -0.2111 -1.5876  0.3550
 6124TIP3    H239932   5.644   5.182   7.746  0.6855  0.4342 -2.0478
 6125TIP3   OH239933   5.199   0.870   1.757 -0.2107 -1.0398  0.0790
 6125TIP3    H139934   5.111   0.904   1.744 -0.2555 -1.1029  0.2163
 6125TIP3    H239935   5.189   0.774   1.753 -0.3767 -1.1064  1.4502
 6126TIP3   OH239936   5.774   6.235   1.627 -0.0119  0.4651  0.2980
 6126TIP3    H139937   5.857   6.195   1.599  0.6201  2.7211 -1.4080
 6126TIP3    H239938   5.795   6.277   1.710  0.1152 -0.1985  0.6130
 6127TIP3   OH239939   1.196   6.266   8.815 -0.1730  0.2443  0.5038
 6127TIP3    H139940   1.271   6.207   8.801 -0.0157  0.5900 -0.1213
 6127TIP3    H239941   1.119   6.212   8.795 -0.1046 -0.1336  1.2201
 6128TIP3   OH239942   2.358   6.489   1.099 -0.0668 -0.3859 -0.2234
 6128TIP3    H139943   2.359   6.571   1.050  0.6673 -1.0868 -1.3982
 6128TIP3    H239944   2.288   6.502   1.164 -0.5976  0.8088 -0.9927
 6129TIP3   OH239945   6.487   1.385   0.965  0.1765  0.1355 -0.1147
 6129TIP3    H139946   6.420   1.417   1.025 -0.8556  0.1180 -1.2067
 6129TIP3    H239947   6.557   1.450   0.970 -0.3825  0.7198  0.2662
 6130TIP3   OH239948   4.981   0.779   8.445 -0.9570  0.0934 -0.3788
 6130TIP3    H139949   5.013   0.798   8.533 -0.3772 -2.1469 -0.0559
 6130TIP3    H239950   5.030   0.838   8.389 -0.1662  0.4377  0.6443
 6131TIP3   OH239951   4.402   2.718   1.978 -0.1795 -0.0447 -0.2759
 6131TIP3    H139952   4.422   2.710   2.071 -1.9339 -1.8965  0.0025
 6131TIP3    H239953   4.426   2.808   1.956  0.0092  0.5174  2.0104
 6132TIP3   OH239954   6.101   6.145   8.121 -0.0024 -0.3638 -0.4604
 6132TIP3    H139955   6.066   6.140   8.210 -0.0808 -0.5592 -0.5005
 6132TIP3    H239956   6.023   6.149   8.065  0.0464  0.2845 -0.4939
 6133TIP3   OH239957   2.779   6.159   2.172  0.4393  0.4669  0.2419
 6133TIP3    H139958   2.686   6.152   2.150  0.3795  0.6670  0.4247
 6133TIP3    H239959   2.794   6.087   2.233  0.2452  0.8273  0.7293
 6134TIP3   OH239960   1.825   6.101   8.410  0.2523 -0.0131  0.4563
 6134TIP3    H139961   1.827   6.129   8.318  0.8538  0.3501  0.5733
 6134TIP3    H239962   1.799   6.180   8.458  1.6184  0.2729  0.7594
 6135TIP3   OH239963   6.144   4.633   0.824 -0.2930  0.2921 -0.6319
 6135TIP3    H139964   6.199   4.599   0.753  1.1357 -0.9040  0.9639
 6135TIP3    H239965   6.141   4.727   0.809  0.1561  0.0997 -2.1337
 6136TIP3   OH239966   4.390   6.275   2.330  0.2164  0.1132 -0.3433
 6136TIP3    H139967   4.335   6.351   2.311 -0.9227 -0.6299 -0.1451
 6136TIP3    H239968   4.478   6.302   2.306 -0.1455  1.5379 -0.1599
 6137TIP3   OH239969   1.505   1.813   0.859  0.2402  0.9214 -0.2936
 6137TIP3    H139970   1.556   1.752   0.806 -1.7745 -0.7021 -0.5297
 6137TIP3    H239971   1.555   1.894   0.860  1.0342  0.5785 -3.5100
 6138TIP3   OH239972   2.145   5.181   7.968  0.5571 -0.3606 -0.5401
 6138TIP3    H139973   2.149   5.098   7.921  0.4138 -1.4261  1.2441
 6138TIP3    H239974   2.129   5.157   8.059  0.7646  1.6227  0.0795
 6139TIP3   OH239975   0.909   3.758   7.447  0.1835 -0.1307  0.0782
 6139TIP3    H139976   0.884   3.753   7.539  0.4651 -2.7311  0.0826
 6139TIP3    H239977   0.847   3.701   7.401  1.0903 -0.2583 -1.0710
 6140TIP3   OH239978   3.200   3.778   7.835 -0.1041 -0.1552 -0.1009
 6140TIP3    H139979   3.244   3.746   7.756  0.6383  1.5578 -0.4247
 6140TIP3    H239980   3.146   3.850   7.805 -0.6429 -0.1619  0.8107
 6141TIP3   OH239981   1.304   2.173   1.954 -0.4125 -0.2379 -0.7926
 6141TIP3    H139982   1.308   2.163   2.049 -0.4755 -1.2249 -0.8812
 6141TIP3    H239983   1.346   2.257   1.937  1.3272 -0.9022 -0.0249
 6142TIP3   OH239984   0.102   4.743   2.578  0.0069 -0.2687 -0.2409
 6142TIP3    H139985   0.026   4.753   2.635  0.2249  2.2916 -0.2619
 6142TIP3    H239986   0.068   4.762   2.490  0.3678 -0.6687 -0.4690
 6143TIP3   OH239987   2.769   4.031   2.663  0.4658  0.1583  0.3562
 6143TIP3    H139988   2.687   4.051   2.617  0.5013  2.0997  1.0291
 6143TIP3    H239989   2.819   3.977   2.602 -0.7353  0.1119 -0.6263
 6144TIP3   OH239990   5.103   2.769   2.186  0.2168 -0.6840 -0.1270
 6144TIP3    H139991   5.096   2.807   2.098  0.4601 -0.9389 -0.2609
 6144TIP3    H239992   5.162   2.694   2.174 -1.4430 -2.0305 -0.1846
 6145TIP3   OH239993   2.978   5.791   1.137 -0.1023  0.9014  0.0737
 6145TIP3    H139994   3.049   5.832   1.185  1.5196 -1.0853 -0.4819
 6145TIP3    H239995   3.012   5.780   1.048 -1.0167 -0.2698 -0.1612
 6146TIP3   OH239996   4.474   2.215   7.839 -0.2217 -1.0045 -0.4602
 6146TIP3    H139997   4.390   2.260   7.840  0.8571  1.1391  0.8322
 6146TIP3    H239998   4.513   2.239   7.755 -0.5905 -1.4594 -0.7700
 6147TIP3   OH239999   5.450   4.305   0.380  0.3004 -0.2284 -0.0648
 6147TIP3    H140000   5.407   4.306   0.466 -0.6897 -1.6547 -0.5168
 6147TIP3    H240001   5.411   4.230   0.334  1.4044  0.0180 -1.4641
 6148TIP3   OH240002   3.544   2.307   7.864 -0.5490  0.0429  0.9244
 6148TIP3    H140003   3.579   2.391   7.835 -0.4811 -0.8525 -1.9870
 6148TIP3    H240004   3.593   2.242   7.813 -0.2006 -1.8667  3.4646
 6149TIP3   OH240005   4.159   2.160   8.914 -0.2840 -0.6332  0.8109
 6149TIP3    H140006   4.236   2.177   8.968  0.1570 -1.7668  0.5613
 6149TIP3    H240007   4.184   2.185   8.826 -1.0844  1.4478  1.1106
 6150TIP3   OH240008   0.970   0.950   0.332  0.6407 -0.1769  0.2824
 6150TIP3    H140009   0.998   0.984   0.417 -0.4010  0.4828  0.3826
 6150TIP3    H240010   0.879   0.923   0.347  1.0372 -1.8401 -0.1372
 6151TIP3   OH240011   2.382   2.862   3.271 -0.2664  0.3724 -0.0967
 6151TIP3    H140012   2.347   2.790   3.324  1.3998 -0.8307 -0.5524
 6151TIP3    H240013   2.305   2.898   3.227 -1.2160 -0.8190  0.5068
 6152TIP3   OH240014   2.314   2.794   7.813 -0.0935  0.4598  0.0968
 6152TIP3    H140015   2.345   2.840   7.891  1.0828  0.7062 -0.5001
 6152TIP3    H240016   2.226   2.829   7.799  0.9575  3.0610 -0.6860
 6153TIP3   OH240017   0.808   3.811   1.954 -0.0080 -0.3310 -0.3792
 6153TIP3    H140018   0.741   3.845   1.895  0.6331  2.1530  0.2113
 6153TIP3    H240019   0.885   3.866   1.937  0.0959  0.7648  2.9401
 6154TIP3   OH240020   0.840   6.359   2.301  0.0206 -0.4230  0.8173
 6154TIP3    H140021   0.828   6.425   2.233 -1.4697 -2.2257 -0.7951
 6154TIP3    H240022   0.751   6.340   2.332  0.5525 -0.6518  2.2605
 6155TIP3   OH240023   4.611   6.207   2.663  0.2527  0.6581  0.4016
 6155TIP3    H140024   4.646   6.294   2.683  1.6402  0.2845 -0.2833
 6155TIP3    H240025   4.555   6.186   2.738  2.0304  1.0241  1.8959
 6156TIP3   OH240026   3.598   1.556   8.811 -0.0599  0.0319  0.8032
 6156TIP3    H140027   3.511   1.596   8.815  0.1086  0.8111 -1.6208
 6156TIP3    H240028   3.658   1.627   8.835  0.0293  0.2209  0.0456
 6157TIP3   OH240029   2.414   0.817   3.093  0.2735 -0.3707  0.0279
 6157TIP3    H140030   2.331   0.813   3.046 -0.3176  1.1527  0.8647
 6157TIP3    H240031   2.426   0.730   3.129 -1.6093 -0.2816  0.9604
 6158TIP3   OH240032   6.092   5.016   1.572  0.0440  0.4130 -0.2740
 6158TIP3    H140033   6.102   4.998   1.478 -1.3716  0.0983 -0.3904
 6158TIP3    H240034   6.080   5.110   1.578 -0.0279  0.4145 -0.4338
 6159TIP3   OH240035   6.620   5.882   1.455 -0.1060 -0.1822  0.2705
 6159TIP3    H140036   6.667   5.953   1.413 -0.1155 -0.4794 -0.2593
 6159TIP3    H240037   6.688   5.824   1.489 -0.0464 -0.8495 -0.8957
 6160TIP3   OH240038   1.303   1.918   2.245 -0.7362  0.5225 -0.6024
 6160TIP3    H140039   1.335   1.874   2.324  1.0813  0.4404 -1.3268
 6160TIP3    H240040   1.360   1.994   2.236 -1.8569  1.3378 -1.0788
 6161TIP3   OH240041   5.182   2.294   8.374 -0.4878  0.0810  0.0421
 6161TIP3    H140042   5.087   2.280   8.372 -0.4154 -0.5268  0.3691
 6161TIP3    H240043   5.211   2.269   8.287 -0.6539  0.4589 -0.1223
 6162TIP3   OH240044   4.667   4.263   0.017  0.1729 -0.1599 -0.1564
 6162TIP3    H140045   4.627   4.235   0.100  1.2404 -2.1897 -0.2547
 6162TIP3    H240046   4.680   4.357   0.027 -2.1834  0.1226  0.8870
 6163TIP3   OH240047   0.777   3.932   8.509  0.1392 -0.2968  0.0259
 6163TIP3    H140048   0.830   3.939   8.588 -0.0305  0.2543  0.0974
 6163TIP3    H240049   0.757   4.023   8.486 -1.7431 -0.5056  0.6604
 6164TIP3   OH240050   3.372   5.692   2.927  0.0293  0.1994  1.0628
 6164TIP3    H140051   3.403   5.738   2.850 -1.5115  0.8099  0.7654
 6164TIP3    H240052   3.410   5.739   3.001  2.2110 -0.9063  0.7156
 6165TIP3   OH240053   0.094   0.713   1.789  0.5108 -0.0781  0.3056
 6165TIP3    H140054   0.053   0.652   1.850 -0.9192  1.6458  1.1872
 6165TIP3    H240055   0.029   0.782   1.777  1.9630  1.1791 -0.8001
 6166TIP3   OH240056   3.424   0.136   0.335 -0.6536  0.2348 -0.0140
 6166TIP3    H140057   3.510   0.164   0.365 -0.8582  1.1839 -0.2699
 6166TIP3    H240058   3.404   0.194   0.262 -1.6267  0.2140  0.2207
 6167TIP3   OH240059   6.610   4.311   2.530  0.6798 -0.2287 -0.4322
 6167TIP3    H140060   6.651   4.345   2.450 -2.6365  0.8483 -1.8622
 6167TIP3    H240061   6.570   4.228   2.503  0.7821 -0.5908  0.5088
 6168TIP3   OH240062   2.280   5.901   0.283  0.0117 -0.2238 -0.0565
 6168TIP3    H140063   2.210   5.892   0.218 -0.5902 -0.5091  0.6151
 6168TIP3    H240064   2.301   5.811   0.307  2.1340 -0.2679 -1.8161
 6169TIP3   OH240065   5.556   6.050   7.688  0.0053  0.0376 -0.0546
 6169TIP3    H140066   5.508   6.112   7.744  0.1950  0.9977 -0.9128
 6169TIP3    H240067   5.494   5.979   7.672 -0.5039  0.3915  0.3136
 6170TIP3   OH240068   4.124   1.154   0.369 -0.0352 -0.1946 -0.4141
 6170TIP3    H140069   4.033   1.138   0.344 -0.0681 -0.3086 -0.2238
 6170TIP3    H240070   4.161   1.066   0.382 -0.0442 -0.1356  0.0244
 6171TIP3   OH240071   4.211   4.134   0.498  0.3835  0.9309 -0.0836
 6171TIP3    H140072   4.230   4.121   0.406  0.7242 -1.4152  0.2607
 6171TIP3    H240073   4.116   4.146   0.501  0.2255 -0.0727 -0.6603
 6172TIP3   OH240074   5.251   1.049   2.818 -0.3379  0.3478  0.1591
 6172TIP3    H140075   5.163   1.078   2.794 -0.7879 -0.2366  1.0215
 6172TIP3    H240076   5.237   0.992   2.894  0.4306 -2.4462 -1.6465
 6173TIP3   OH240077   4.316   1.929   1.378 -0.2183 -0.3085 -0.2015
 6173TIP3    H140078   4.371   1.928   1.456 -0.2389 -0.1780 -0.1848
 6173TIP3    H240079   4.329   2.017   1.341 -3.7833  1.4578  2.2001
 6174TIP3   OH240080   6.401   1.384   8.816 -0.2280 -0.1197 -0.0173
 6174TIP3    H140081   6.401   1.386   8.720 -2.3917 -0.3479 -0.0762
 6174TIP3    H240082   6.392   1.475   8.842  0.0327 -0.0866 -0.0446
 6175TIP3   OH240083   1.874   1.924   2.166 -0.2770  0.4580  0.0217
 6175TIP3    H140084   1.928   1.970   2.230  0.9015  1.1600 -1.4035
 6175TIP3    H240085   1.934   1.862   2.125 -1.1778 -0.4524  0.0623
 6176TIP3   OH240086   5.882   4.586   0.922  0.1064 -0.3359 -0.2056
 6176TIP3    H140087   5.811   4.532   0.886  0.8854 -1.2217 -0.4529
 6176TIP3    H240088   5.960   4.559   0.874  0.0406  3.3473 -2.7324
 6177TIP3   OH240089   3.233   3.746   1.491  0.0056 -0.2930 -0.6630
 6177TIP3    H140090   3.161   3.743   1.554 -0.1068  1.2279 -0.6728
 6177TIP3    H240091   3.196   3.709   1.411 -1.1331  1.3954 -0.9746
 6178TIP3   OH240092   3.769   5.369   1.199  0.0230  0.2363  0.2347
 6178TIP3    H140093   3.694   5.370   1.259 -0.3715  2.7518 -0.1770
 6178TIP3    H240094   3.838   5.324   1.248 -0.7743  0.7832  1.9396
 6179TIP3   OH240095   4.804   5.899   0.370  0.2715 -0.3732 -0.9144
 6179TIP3    H140096   4.804   5.948   0.453 -0.3458 -1.0683 -0.4919
 6179TIP3    H240097   4.851   5.818   0.390  1.8747  0.3094 -1.7881
 6180TIP3   OH240098   4.062   1.181   0.641  0.0460 -0.0106 -0.7151
 6180TIP3    H140099   4.039   1.273   0.651  0.8073  0.0512  0.7443
 6180TIP3    H240100   4.070   1.168   0.547  0.3725  1.5286 -0.9212
 6181TIP3   OH240101   2.573   1.037   1.320 -0.0854  0.2747 -0.7979
 6181TIP3    H140102   2.662   1.003   1.328 -0.7937 -1.4593  0.3463
 6181TIP3    H240103   2.531   1.015   1.403 -1.5721  1.0717 -1.3033
 6182TIP3   OH240104   4.575   5.168   0.446 -0.1189  0.3414  0.0546
 6182TIP3    H140105   4.532   5.131   0.368  2.7437 -0.4447 -1.2949
 6182TIP3    H240106   4.559   5.262   0.439 -1.5100  0.1088 -0.3857
 6183TIP3   OH240107   4.785   6.109   0.875  0.3380 -0.3878  0.2090
 6183TIP3    H140108   4.710   6.102   0.936  0.0379  0.0949 -0.1015
 6183TIP3    H240109   4.859   6.130   0.931 -0.2212  1.6054  0.2542
 6184TIP3   OH240110   5.285   6.294   1.381 -0.0769 -0.2187 -0.4330
 6184TIP3    H140111   5.202   6.252   1.360  1.3760 -2.7267 -1.7082
 6184TIP3    H240112   5.291   6.368   1.321 -1.0350 -0.5045 -0.9007
 6185TIP3   OH240113   2.229   3.248   2.146  0.2347  0.9044  0.7848
 6185TIP3    H140114   2.291   3.300   2.196  1.7640  1.2764 -1.3898
 6185TIP3    H240115   2.240   3.159   2.180 -0.4273  1.4885  2.6319
 6186TIP3   OH240116   0.573   1.080   2.614  0.0007 -0.3128  1.0826
 6186TIP3    H140117   0.585   1.153   2.553 -0.8606  0.2472  1.5657
 6186TIP3    H240118   0.649   1.085   2.672  0.6080 -0.5914  0.3286
 6187TIP3   OH240119   6.588   3.752   2.985  0.1426 -0.4263  0.7060
 6187TIP3    H140120   6.575   3.699   2.906 -2.5318 -0.4738  1.0662
 6187TIP3    H240121   6.626   3.834   2.954  0.4483 -0.9834 -0.4322
 6188TIP3   OH240122   6.743   5.638   1.659  0.1555 -0.2566  0.3714
 6188TIP3    H140123   6.802   5.612   1.589 -1.4527  0.8221 -1.5007
 6188TIP3    H240124   6.679   5.568   1.665  1.0388 -0.9985  1.7793
 6189TIP3   OH240125   4.036   0.739   0.660 -0.0313  0.2089  0.2202
 6189TIP3    H140126   4.040   0.659   0.711  3.3554  0.3201  0.3384
 6189TIP3    H240127   4.067   0.807   0.719 -0.6743  1.2212 -0.5642
 6190TIP3   OH240128   0.491   4.920   8.863  0.5746  0.4373 -0.6343
 6190TIP3    H140129   0.428   4.992   8.864  2.3918  2.2690  3.4077
 6190TIP3    H240130   0.572   4.958   8.897  2.0700 -3.1891  0.3655
 6191TIP3   OH240131   5.139   0.638   1.162  0.3601 -0.3106 -0.0276
 6191TIP3    H140132   5.073   0.576   1.131  1.5260 -1.1605 -0.9367
 6191TIP3    H240133   5.208   0.633   1.096  1.1951  0.7671  0.7411
 6192TIP3   OH240134   1.933   3.294   8.508 -0.6535 -0.1037  0.2609
 6192TIP3    H140135   1.919   3.385   8.484 -0.4451 -0.1599 -0.0714
 6192TIP3    H240136   2.011   3.268   8.461 -0.5999 -0.3987  0.5079
 6193TIP3   OH240137   5.806   3.661   1.411 -0.0859  0.1680 -0.5079
 6193TIP3    H140138   5.763   3.643   1.327  1.1091  0.1824 -1.1397
 6193TIP3    H240139   5.752   3.616   1.476  0.0932 -1.5853 -1.5123
 6194TIP3   OH240140   4.290   0.723   8.288 -0.0564  0.4000  0.2357
 6194TIP3    H140141   4.320   0.811   8.310 -0.6244  0.7928 -0.5239
 6194TIP3    H240142   4.347   0.695   8.217  1.3844 -0.6331  1.7129
 6195TIP3   OH240143   0.308   5.726   1.025  0.5951 -0.6693 -0.0664
 6195TIP3    H140144   0.309   5.772   0.942 -3.9667  0.6223  0.3006
 6195TIP3    H240145   0.258   5.646   1.007  0.6872 -1.0156  1.1316
 6196TIP3   OH240146   1.053   0.518   1.774  0.0940  0.1371 -0.4872
 6196TIP3    H140147   1.001   0.527   1.854 -0.1300 -0.4653 -0.5691
 6196TIP3    H240148   1.044   0.427   1.748  0.0370  0.3633 -1.2964
 6197TIP3   OH240149   3.016   1.637   8.431  0.5584 -0.0693 -0.0714
 6197TIP3    H140150   2.921   1.638   8.449  1.0822  0.2639  3.4325
 6197TIP3    H240151   3.029   1.708   8.368 -1.5484 -0.2827 -0.8183
 6198TIP3   OH240152   6.001   1.253   0.183  0.5120  0.6200  0.1264
 6198TIP3    H140153   5.948   1.212   0.252 -1.4763  2.4425 -0.1867
 6198TIP3    H240154   5.957   1.337   0.166  0.8006  0.2132 -3.4528
 6199TIP3   OH240155   0.053   0.048   1.771  0.5248  0.4242 -0.1285
 6199TIP3    H140156   0.117   0.060   1.701  1.0236  0.7499  0.3732
 6199TIP3    H240157  -0.031   0.045   1.726  0.5331  3.4327 -0.5524
 6200TIP3   OH240158   2.095   3.436   0.561  0.3400  0.0200  0.4116
 6200TIP3    H140159   2.004   3.462   0.548  0.7252  0.4707 -1.7354
 6200TIP3    H240160   2.108   3.363   0.500  1.5562  0.3067  0.3037
 6201TIP3   OH240161   1.106   5.949   1.236 -0.1067  0.0454  0.3648
 6201TIP3    H140162   1.034   5.887   1.246  0.4643 -0.4849  1.2784
 6201TIP3    H240163   1.064   6.035   1.236 -0.9047 -0.3153 -0.8875
 6202TIP3   OH240164   3.038   0.777   1.066  0.1502  0.0745  1.0249
 6202TIP3    H140165   3.047   0.683   1.053  0.6081  0.3668 -1.1146
 6202TIP3    H240166   3.125   0.813   1.047 -0.5405  1.0998 -0.3915
 6203TIP3   OH240167   3.279   2.329   7.993  0.4516  0.1993 -0.2415
 6203TIP3    H140168   3.282   2.234   8.006 -2.5013 -0.0728 -0.9676
 6203TIP3    H240169   3.357   2.348   7.941  1.2603 -1.7776  0.1544
 6204TIP3   OH240170   0.438   1.794   1.817  0.3051  0.2043 -0.2763
 6204TIP3    H140171   0.353   1.836   1.809 -0.8448 -2.0712 -0.6898
 6204TIP3    H240172   0.495   1.843   1.757 -0.8245  1.3961 -0.4145
 6205TIP3   OH240173   1.673   1.282   0.881  0.5740 -0.0536 -0.2868
 6205TIP3    H140174   1.663   1.192   0.912 -1.4689  0.4809  0.7498
 6205TIP3    H240175   1.767   1.290   0.862  0.9725 -2.0860  0.5563
 6206TIP3   OH240176   4.793   3.657   8.785  0.2202 -0.0752 -0.3331
 6206TIP3    H140177   4.737   3.733   8.771  0.3559  0.1288  0.1986
 6206TIP3    H240178   4.796   3.647   8.881  0.6720 -0.3932 -0.3789
 6207TIP3   OH240179   3.505   5.961   0.810 -0.3502  0.1847  0.7299
 6207TIP3    H140180   3.566   5.996   0.745 -0.8221  0.5247  0.4585
 6207TIP3    H240181   3.488   5.872   0.781 -2.2968  1.0036 -0.9564
 6208TIP3   OH240182   1.374   4.000   8.184 -0.1960 -0.7142  0.1952
 6208TIP3    H140183   1.350   4.093   8.183 -1.3114 -0.9952 -0.1599
 6208TIP3    H240184   1.469   4.000   8.193 -0.2025  0.4619  0.3861
 6209TIP3   OH240185   6.370   2.762   0.760  0.0414 -1.1346 -0.0283
 6209TIP3    H140186   6.288   2.801   0.790 -0.6678 -3.7041  1.6461
 6209TIP3    H240187   6.438   2.819   0.796 -0.9674  0.2577 -0.2625
 6210TIP3   OH240188   2.291   4.673   1.933  0.1519  0.2072  0.4255
 6210TIP3    H140189   2.310   4.598   1.876 -2.5286  0.7241 -1.3446
 6210TIP3    H240190   2.207   4.651   1.973 -0.0446  1.6979  0.8930
 6211TIP3   OH240191   0.226   1.135   8.348  0.5608  0.9394  0.0143
 6211TIP3    H140192   0.259   1.118   8.437  1.2314  0.6400 -0.2853
 6211TIP3    H240193   0.135   1.106   8.350  0.2638  1.8461  0.8788
 6212TIP3   OH240194   5.358   6.584   0.229  0.5840  0.3485 -0.2057
 6212TIP3    H140195   5.306   6.637   0.289  1.6611  0.8356  0.3287
 6212TIP3    H240196   5.296   6.521   0.192 -0.3940  0.9813  0.3188
 6213TIP3   OH240197   4.235   3.527   1.414 -0.3912  0.5394 -0.9629
 6213TIP3    H140198   4.298   3.559   1.479 -1.3213  1.3834 -0.4651
 6213TIP3    H240199   4.258   3.574   1.334  0.0140  0.3616 -0.9565
 6214TIP3   OH240200   5.560   0.872   1.301 -0.0634 -0.1839  0.2483
 6214TIP3    H140201   5.491   0.910   1.247 -1.4020  0.6538  2.4256
 6214TIP3    H240202   5.613   0.946   1.329  0.8501 -0.6589 -0.1557
 6215TIP3   OH240203   5.252   4.191   8.403 -0.6498  0.0374 -0.5759
 6215TIP3    H140204   5.343   4.163   8.392 -1.1948 -2.4345  0.5556
 6215TIP3    H240205   5.240   4.199   8.497 -1.5609  0.5548 -0.7183
 6216TIP3   OH240206   5.408   1.851   1.866  0.0717 -0.4649  0.5282
 6216TIP3    H140207   5.372   1.870   1.952  0.1931  0.5156  0.3785
 6216TIP3    H240208   5.501   1.871   1.874 -0.0939  0.6645 -0.0967
 6217TIP3   OH240209   3.002   5.391   2.230  0.2614  0.7074  0.0978
 6217TIP3    H140210   2.917   5.385   2.273 -1.1100  0.5408 -2.4158
 6217TIP3    H240211   3.016   5.485   2.219  1.3967  0.8381  2.2059
 6218TIP3   OH240212   4.210   1.443   1.253 -0.5037 -0.1714  0.3680
 6218TIP3    H140213   4.289   1.497   1.245 -1.3305  0.9768 -0.2619
 6218TIP3    H240214   4.156   1.488   1.318 -1.1026 -0.3595  0.0076
 6219TIP3   OH240215   2.939   3.498   8.649  0.3115 -0.8061  0.0007
 6219TIP3    H140216   2.917   3.574   8.596  0.6751 -0.4830  0.3030
 6219TIP3    H240217   2.855   3.468   8.684  0.1538 -0.6168 -0.2137
 6220TIP3   OH240218   6.045   5.681   2.730 -0.0442 -0.3324 -0.0133
 6220TIP3    H140219   5.999   5.600   2.753  0.8013 -1.3726 -1.8112
 6220TIP3    H240220   6.058   5.725   2.814  1.3184 -3.0447  1.3410
 6221TIP3   OH240221   5.686   3.079   3.596  0.0483  0.3268 -0.1222
 6221TIP3    H140222   5.759   3.106   3.652  0.4178  0.6897 -0.7672
 6221TIP3    H240223   5.724   3.014   3.537 -0.4376 -0.3673  0.3028
 6222TIP3   OH240224   2.121   6.130   0.095  0.0357  0.7091 -0.3283
 6222TIP3    H140225   2.035   6.146   0.058 -1.0942 -2.9290  0.2878
 6222TIP3    H240226   2.164   6.072   0.032  0.8358  0.1136  0.7292
 6223TIP3   OH240227   1.840   0.964   0.915 -0.2127 -0.2851 -0.0347
 6223TIP3    H140228   1.926   1.006   0.924 -0.6311  1.4050 -2.8660
 6223TIP3    H240229   1.834   0.906   0.991  3.2576 -0.2078  0.4600
 6224TIP3   OH240230   0.699   3.135   8.356 -0.3666 -0.7138 -0.3431
 6224TIP3    H140231   0.611   3.151   8.322  0.4300  2.1263 -1.3761
 6224TIP3    H240232   0.694   3.160   8.448 -0.3516  0.8690 -0.7438
 6225TIP3   OH240233   1.787   0.763   8.328 -0.8577  0.4158 -0.6713
 6225TIP3    H140234   1.869   0.811   8.318 -0.0955 -0.6533  0.2589
 6225TIP3    H240235   1.783   0.707   8.251 -1.0616  0.9605 -1.0613
 6226TIP3   OH240236   5.248   2.233   3.308  0.0490 -0.1408  0.2963
 6226TIP3    H140237   5.320   2.215   3.369  0.8798  0.9666 -0.3159
 6226TIP3    H240238   5.276   2.191   3.226 -1.2698 -2.0166  0.7381
 6227TIP3   OH240239   2.603   5.046   8.476  0.4264 -0.1303 -0.5861
 6227TIP3    H140240   2.595   5.139   8.456  3.1679 -0.2496 -3.0006
 6227TIP3    H240241   2.617   5.043   8.571 -0.5858  1.7929 -0.3249
 6228TIP3   OH240242   1.904   1.121   0.593  0.1445 -0.0768  0.4158
 6228TIP3    H140243   1.832   1.087   0.646 -0.0995 -0.0747  0.0853
 6228TIP3    H240244   1.862   1.160   0.517  0.5161 -0.4423  0.0169
 6229TIP3   OH240245   0.610   0.454   3.015 -0.0098  0.0202  0.3644
 6229TIP3    H140246   0.665   0.493   2.948 -0.3359  0.8037  0.5423
 6229TIP3    H240247   0.601   0.362   2.988  1.5829 -0.1998  0.4821
 6230TIP3   OH240248   3.355   3.382   8.796 -0.5928  0.0803  0.5302
 6230TIP3    H140249   3.365   3.461   8.744 -2.3690  0.0934  0.1360
 6230TIP3    H240250   3.285   3.333   8.752 -1.3938 -0.4254  2.2623
 6231TIP3   OH240251   1.961   5.859   8.624  0.4127 -0.6800  0.2680
 6231TIP3    H140252   1.897   5.837   8.556 -0.6195 -0.3303  1.0968
 6231TIP3    H240253   1.979   5.952   8.611  0.6977 -0.7600  0.0840
 6232TIP3   OH240254   2.808   5.881   1.571  0.1417  0.0968  0.0057
 6232TIP3    H140255   2.850   5.966   1.585  0.8095 -0.3127  0.5244
 6232TIP3    H240256   2.880   5.818   1.569 -0.3602 -0.4874 -0.2064
 6233TIP3   OH240257   2.821   4.684   1.735 -0.6535  0.3515 -0.0126
 6233TIP3    H140258   2.865   4.735   1.803 -2.7894  4.0151 -1.0847
 6233TIP3    H240259   2.864   4.712   1.653 -0.9382 -0.7131 -0.5416
 6234TIP3   OH240260   3.692   4.754   3.397  0.0062  0.2270  0.1471
 6234TIP3    H140261   3.767   4.762   3.456 -0.3853  0.0669  0.6726
 6234TIP3    H240262   3.622   4.801   3.441 -0.0154  0.9979 -0.6827
 6235TIP3   OH240263   3.098   5.112   0.288 -0.1524  0.1760 -1.3514
 6235TIP3    H140264   3.129   5.064   0.211 -1.2423  0.0861 -1.7488
 6235TIP3    H240265   3.177   5.148   0.327  0.7355 -1.9613 -1.0331
 6236TIP3   OH240266   0.227   3.988   0.580  0.5031 -0.5597 -0.1031
 6236TIP3    H140267   0.155   3.926   0.588  0.1908 -0.6249 -2.6190
 6236TIP3    H240268   0.212   4.032   0.497  2.5945  0.4573 -0.0175
 6237TIP3   OH240269   0.470   1.203   7.944  0.1389 -0.0771 -0.7069
 6237TIP3    H140270   0.398   1.196   8.006  2.0052  1.3613  1.8016
 6237TIP3    H240271   0.440   1.155   7.867 -2.4920 -1.5835  1.1007
 6238TIP3   OH240272   1.944   2.503   7.500  0.1012  0.5791  0.2509
 6238TIP3    H140273   1.946   2.408   7.504  0.1857  0.4729 -1.5914
 6238TIP3    H240274   1.858   2.527   7.533 -0.2487 -0.1909 -0.0895
 6239TIP3   OH240275   0.915   5.213   8.571  0.0721  0.4126  0.0103
 6239TIP3    H140276   0.912   5.218   8.476 -0.8119 -1.1796 -0.0791
 6239TIP3    H240277   1.001   5.175   8.590 -0.6876 -1.5835 -0.3262
 6240TIP3   OH240278   6.758   5.188   0.711 -0.2877 -0.0562  0.2226
 6240TIP3    H140279   6.822   5.220   0.647 -0.7586 -0.0011 -0.2274
 6240TIP3    H240280   6.798   5.109   0.746  0.1697  0.1473  0.1727
 6241TIP3   OH240281   5.850   4.398   0.732  0.1921 -0.1295  0.3357
 6241TIP3    H140282   5.806   4.465   0.678  1.4122 -0.2178 -0.8134
 6241TIP3    H240283   5.795   4.321   0.723 -0.8566  0.4996  1.1097
 6242TIP3   OH240284   2.187   2.949   2.730 -0.0981  0.1989  0.0295
 6242TIP3    H140285   2.091   2.953   2.726 -0.1468  1.0454  1.2987
 6242TIP3    H240286   2.210   2.873   2.677 -1.4726  0.0089 -0.3375
 6243TIP3   OH240287   3.193   2.119   1.348  0.1758  0.2313  0.3371
 6243TIP3    H140288   3.213   2.026   1.340 -0.5523  0.1325 -0.4561
 6243TIP3    H240289   3.166   2.146   1.260  1.4762  1.4656  0.2709
 6244TIP3   OH240290   5.734   6.158   8.511  0.2777  0.1925 -0.0039
 6244TIP3    H140291   5.736   6.067   8.484 -1.6739 -0.7761  2.6360
 6244TIP3    H240292   5.672   6.200   8.451 -2.3546 -1.3806  1.4474
 6245TIP3   OH240293   4.861   4.593   0.860 -0.0041 -0.0934 -0.1092
 6245TIP3    H140294   4.772   4.628   0.857 -0.6297 -1.5364  0.3589
 6245TIP3    H240295   4.906   4.645   0.926 -0.8776 -0.1111  0.5096
 6246TIP3   OH240296   0.618   4.785   0.324  0.2263  0.6458  0.6244
 6246TIP3    H140297   0.638   4.710   0.269  0.1926  0.1179  1.3087
 6246TIP3    H240298   0.671   4.856   0.290  0.7253  0.1440  0.3489
 6247TIP3   OH240299   6.072   0.426   7.539  0.0019 -0.3946  0.4023
 6247TIP3    H140300   6.102   0.363   7.473 -1.0848 -0.7242  0.2179
 6247TIP3    H240301   6.133   0.414   7.612  1.7721  0.5591 -0.8159
 6248TIP3   OH240302   1.323   6.076   8.655  0.2669  0.1324 -0.5597
 6248TIP3    H140303   1.287   6.018   8.589 -0.6066  0.6826 -0.5844
 6248TIP3    H240304   1.396   6.027   8.694  0.0035 -0.6760 -1.0725
 6249TIP3   OH240305   5.560   3.903   8.520  0.1883  0.9597 -0.2044
 6249TIP3    H140306   5.613   3.965   8.570  0.8782  0.3916 -0.2209
 6249TIP3    H240307   5.470   3.920   8.548  0.6143  0.2227  1.7158
 6250TIP3   OH240308   3.577   2.081   8.263  0.5753  0.5126 -0.1535
 6250TIP3    H140309   3.604   2.158   8.211  0.6689 -0.2627 -1.2942
 6250TIP3    H240310   3.507   2.041   8.211  2.1417 -1.5260 -0.8392
 6251TIP3   OH240311   5.861   3.611   8.071  0.0098  0.0899 -0.4353
 6251TIP3    H140312   5.866   3.552   8.146  1.6781  1.1611  0.3724
 6251TIP3    H240313   5.824   3.692   8.107 -1.5703 -0.1822 -1.3642
 6252TIP3   OH240314   5.344   4.831   1.980  0.5435 -0.2716  0.1289
 6252TIP3    H140315   5.293   4.906   1.948  0.2578 -0.7571 -0.5712
 6252TIP3    H240316   5.361   4.778   1.902  2.6593  0.1759  0.2252
 6253TIP3   OH240317   6.671   6.700   7.585 -0.1343  0.0729 -0.3583
 6253TIP3    H140318   6.598   6.738   7.538 -1.1121 -2.8436 -1.3761
 6253TIP3    H240319   6.687   6.762   7.657 -2.4659  1.6277 -1.0524
 6254TIP3   OH240320   1.379   5.626   8.547 -0.2265  0.0911 -0.2692
 6254TIP3    H140321   1.429   5.622   8.466 -1.2384 -1.5490 -0.8784
 6254TIP3    H240322   1.350   5.536   8.562  0.2291  0.2647  2.1362
 6255TIP3   OH240323   4.020   2.521   0.608 -0.0082 -0.1143 -0.4985
 6255TIP3    H140324   4.000   2.515   0.702 -0.9834 -0.5868 -0.7181
 6255TIP3    H240325   3.962   2.456   0.568  1.0778 -0.5943 -1.3334
 6256TIP3   OH240326   2.086   0.765   8.871  0.6373  0.0145  0.4455
 6256TIP3    H140327   2.157   0.829   8.870  0.9926 -0.3587  1.2293
 6256TIP3    H240328   2.012   0.812   8.832  1.5901  0.0478 -1.4407
 6257TIP3   OH240329   3.436   0.520   2.807 -0.2321 -0.5572 -0.1844
 6257TIP3    H140330   3.364   0.552   2.861 -1.9441 -0.5243 -2.3538
 6257TIP3    H240331   3.478   0.599   2.774  1.1876 -0.5663  1.4466
 6258TIP3   OH240332   2.949   5.846   0.585 -0.7377 -0.2773 -0.0067
 6258TIP3    H140333   3.010   5.893   0.527  1.1050 -1.0172  1.2330
 6258TIP3    H240334   2.868   5.842   0.535  0.0612  1.1949 -1.5500
 6259TIP3   OH240335   1.039   0.374   8.746  0.0681  0.9270  0.0959
 6259TIP3    H140336   0.998   0.401   8.828 -0.2165  0.4647  0.1063
 6259TIP3    H240337   0.972   0.323   8.701  0.8168 -0.3309  0.3641
 6260TIP3   OH240338   1.100   5.981   0.851 -0.0340 -0.2565 -0.3182
 6260TIP3    H140339   1.071   5.890   0.860 -0.8879 -0.0451 -0.7133
 6260TIP3    H240340   1.081   6.002   0.759 -0.7175  0.5931 -0.0004
 6261TIP3   OH240341   2.222   2.673   2.658  0.0425 -0.0724  0.1557
 6261TIP3    H140342   2.133   2.652   2.632 -1.0524  2.6198  1.3297
 6261TIP3    H240343   2.257   2.592   2.695 -0.9697 -1.8655 -2.5540
 6262TIP3   OH240344   1.906   1.297   8.137  0.2771  0.2455  0.0725
 6262TIP3    H140345   1.990   1.330   8.108 -1.0645  2.0047 -2.1621
 6262TIP3    H240346   1.869   1.254   8.060 -0.0581 -2.4342  1.5954
 6263TIP3   OH240347   5.080   3.877   1.374  0.3061 -0.1947 -0.1887
 6263TIP3    H140348   5.175   3.887   1.371  0.3155  0.1348  0.7480
 6263TIP3    H240349   5.058   3.831   1.293  1.3398 -0.9255 -0.0773
 6264TIP3   OH240350   3.206   3.504   0.227 -0.1156 -0.2333 -0.3991
 6264TIP3    H140351   3.166   3.505   0.140  0.9021  3.2000 -0.9951
 6264TIP3    H240352   3.300   3.494   0.210  0.2167  1.6221  0.1437
 6265TIP3   OH240353   3.545   1.351   3.134 -0.8876  0.1637 -0.2174
 6265TIP3    H140354   3.518   1.262   3.113 -1.5802 -0.0219  1.3311
 6265TIP3    H240355   3.639   1.344   3.152 -0.7016 -0.0237 -1.1969
 6266TIP3   OH240356   0.039   1.285   3.352 -0.4220  0.5096  0.0469
 6266TIP3    H140357  -0.054   1.275   3.375 -0.6800 -0.1394 -1.2287
 6266TIP3    H240358   0.060   1.206   3.302  0.6741  0.9162 -0.1542
 6267TIP3   OH240359   1.084   5.851   0.183  0.8234  0.4783  0.3045
 6267TIP3    H140360   1.173   5.885   0.194  0.8331  0.4921  0.1923
 6267TIP3    H240361   1.095   5.756   0.183  0.8498  0.4809  0.2065
 6268TIP3   OH240362   6.604   3.005   0.337  0.4481 -0.5987 -0.1055
 6268TIP3    H140363   6.674   2.981   0.276  1.2687  1.5099 -0.0766
 6268TIP3    H240364   6.569   2.921   0.367  0.7224 -1.7137 -2.6398
 6269TIP3   OH240365   4.039   2.751   2.667  0.2752  0.0889 -0.3779
 6269TIP3    H140366   4.008   2.841   2.671  0.8364  0.3077 -0.7957
 6269TIP3    H240367   4.128   2.755   2.701 -0.0737 -0.4998  0.6437
 6270TIP3   OH240368   3.982   4.250   2.690 -0.1483 -0.7280 -0.4446
 6270TIP3    H140369   4.039   4.290   2.624  0.9693 -1.1308  0.2461
 6270TIP3    H240370   4.009   4.158   2.692 -2.5821 -1.5639 -1.9240
 6271TIP3   OH240371   4.667   4.232   3.169  0.1995  0.5462  0.0081
 6271TIP3    H140372   4.607   4.209   3.240  0.7941 -1.7434 -0.1410
 6271TIP3    H240373   4.752   4.199   3.198  0.2771 -1.3780 -2.1333
 6272TIP3   OH240374   5.306   5.469   1.609  0.4767 -0.3012  0.2917
 6272TIP3    H140375   5.388   5.420   1.595  1.3978  1.4098 -0.5704
 6272TIP3    H240376   5.248   5.438   1.540  2.1826  2.0708 -2.4258
 6273TIP3   OH240377   1.969   0.197   8.914 -0.7459  0.3741 -0.7658
 6273TIP3    H140378   1.957   0.130   8.980  0.4022  0.2094 -0.7081
 6273TIP3    H240379   2.019   0.266   8.958  0.0559  0.2516 -1.4457
 6274TIP3   OH240380   4.478   4.562   8.022 -0.0775  0.7148  0.2917
 6274TIP3    H140381   4.476   4.469   7.999  3.2995 -0.2214  2.9365
 6274TIP3    H240382   4.405   4.573   8.084  1.6329 -1.2749  2.8810
 6275TIP3   OH240383   3.147   5.943   1.752 -0.4807  0.6053  0.8389
 6275TIP3    H140384   3.127   5.851   1.763 -1.7919  0.7100 -0.2983
 6275TIP3    H240385   3.145   5.980   1.840  1.4343 -0.6584  1.4784
 6276TIP3   OH240386   3.339   4.235   8.743 -0.0111  0.1928  0.0525
 6276TIP3    H140387   3.310   4.163   8.688 -1.8793  0.9195 -0.0040
 6276TIP3    H240388   3.303   4.313   8.701  1.1180  1.0628  0.6484
 6277TIP3   OH240389   6.367   2.018   8.729  0.2404 -0.1652  0.0349
 6277TIP3    H140390   6.296   2.014   8.793  0.3287 -0.6943  0.1051
 6277TIP3    H240391   6.445   2.035   8.782  0.3100 -0.5790  0.0674
 6278TIP3   OH240392   6.007   6.701   0.607 -0.3236 -0.5542 -0.3059
 6278TIP3    H140393   6.069   6.715   0.680 -0.0488 -2.9967 -0.0068
 6278TIP3    H240394   5.973   6.789   0.589  3.2610  1.0028 -0.5534
 6279TIP3   OH240395   4.178   2.032   7.710 -0.2020  0.5564 -0.0821
 6279TIP3    H140396   4.147   1.951   7.671  0.2109  0.3909 -0.0683
 6279TIP3    H240397   4.272   2.035   7.689 -0.0810  0.7111  0.4563
 6280TIP3   OH240398   3.832   3.710   2.682  0.7251 -0.3079 -0.2353
 6280TIP3    H140399   3.803   3.675   2.598  0.5730 -0.9258  0.0633
 6280TIP3    H240400   3.764   3.683   2.744 -1.0458  3.1314 -0.4503
 6281TIP3   OH240401   0.929   4.713   7.075 -0.0635  0.4483  0.3639
 6281TIP3    H140402   0.986   4.718   7.152  1.0281  0.7497 -0.4389
 6281TIP3    H240403   0.908   4.804   7.054  0.6859  0.4516 -0.4300
 6282TIP3   OH240404   0.575   6.340   8.122 -0.2537 -0.7112 -0.0786
 6282TIP3    H140405   0.668   6.318   8.123  0.6110  2.3504 -1.7148
 6282TIP3    H240406   0.571   6.429   8.157 -1.9176  0.8708 -3.7827
 6283TIP3   OH240407   1.629   2.520   0.779  0.3616  0.2496 -0.5491
 6283TIP3    H140408   1.544   2.491   0.746  0.7845 -0.8598 -0.7057
 6283TIP3    H240409   1.672   2.561   0.704 -0.2210  1.2738 -0.3404
 6284TIP3   OH240410   0.522   4.791   2.472  0.2167 -0.0066  0.0063
 6284TIP3    H140411   0.578   4.846   2.526  0.6372 -1.6556  1.3110
 6284TIP3    H240412   0.581   4.748   2.411  0.4780 -1.8725  1.4896
 6285TIP3   OH240413   2.083   4.239   1.027  0.6898  0.6904  0.4372
 6285TIP3    H140414   2.154   4.294   0.993  2.3604 -2.3312 -1.3580
 6285TIP3    H240415   2.051   4.190   0.951 -1.0704 -0.4577  1.8287
 6286TIP3   OH240416   0.134   4.906   0.742 -0.8654 -0.3832  0.4107
 6286TIP3    H140417   0.128   4.865   0.656 -2.4066  1.3613 -0.3700
 6286TIP3    H240418   0.119   4.833   0.803 -0.0229 -1.6003 -0.7746
 6287TIP3   OH240419   4.843   2.158   7.834 -0.2394 -0.1817 -0.4442
 6287TIP3    H140420   4.807   2.230   7.782 -1.3531 -2.1778 -2.6870
 6287TIP3    H240421   4.767   2.121   7.879 -0.1129 -1.2708 -1.0859
 6288TIP3   OH240422   1.032   6.533   8.152  0.6329 -0.0927 -0.0742
 6288TIP3    H140423   0.969   6.592   8.193  0.3653 -0.8292  0.6036
 6288TIP3    H240424   1.111   6.587   8.139 -0.8302  1.5659 -3.2004
 6289TIP3   OH240425   6.605   2.591   1.663 -0.2432 -0.0119  0.0670
 6289TIP3    H140426   6.563   2.613   1.580  1.8237  1.3101 -0.7204
 6289TIP3    H240427   6.698   2.582   1.640  0.1908 -0.9430  2.0240
 6290TIP3   OH240428   5.774   5.063   2.760 -0.2567 -0.2801 -0.1068
 6290TIP3    H140429   5.832   5.020   2.823 -0.1356 -0.5899 -0.4250
 6290TIP3    H240430   5.745   5.143   2.804  0.8879  0.1922 -0.1669
 6291TIP3   OH240431   5.984   5.107   8.760 -0.6684 -0.1023 -0.1279
 6291TIP3    H140432   5.967   5.170   8.830 -1.4006  1.4226 -1.5924
 6291TIP3    H240433   6.079   5.098   8.757 -0.6575 -2.1569  2.6418
 6292TIP3   OH240434   3.732   0.421   2.800  0.0443 -0.1907  0.0423
 6292TIP3    H140435   3.644   0.458   2.792 -0.2880 -1.0370 -0.4114
 6292TIP3    H240436   3.738   0.393   2.892  0.4638  1.3474  0.5036
 6293TIP3   OH240437   0.539   1.502   1.468 -0.2579 -0.0489  0.0101
 6293TIP3    H140438   0.633   1.483   1.468 -0.0895  0.7361  0.1258
 6293TIP3    H240439   0.530   1.575   1.528 -1.0551 -0.5919  0.5560
 6294TIP3   OH240440   6.749   0.969   0.599  0.5480 -0.7344 -0.3609
 6294TIP3    H140441   6.674   0.974   0.658 -0.2016 -0.9367 -1.2507
 6294TIP3    H240442   6.747   0.879   0.565  0.8557 -0.5802 -0.8062
 6295TIP3   OH240443   1.254   6.036   2.750 -0.4380 -0.1358 -0.1348
 6295TIP3    H140444   1.164   6.058   2.774  0.1318  1.4584  0.7061
 6295TIP3    H240445   1.265   6.072   2.662 -0.3923  0.4024  0.0852
 6296TIP3   OH240446   2.749   5.936   1.958 -0.4779 -0.4811 -0.4274
 6296TIP3    H140447   2.766   5.877   2.032 -1.5493 -0.5389 -0.2127
 6296TIP3    H240448   2.700   5.882   1.896  1.1139 -0.6774 -1.5651
 6297TIP3   OH240449   4.681   3.331   1.792 -0.3301 -0.0717  0.5318
 6297TIP3    H140450   4.633   3.319   1.875 -1.0597  0.6659  0.2363
 6297TIP3    H240451   4.746   3.261   1.792 -0.2025  0.0132  1.8101
 6298TIP3   OH240452   1.200   5.087   8.841 -0.3998 -0.8072  0.1001
 6298TIP3    H140453   1.264   5.023   8.873 -0.0332 -0.2198  0.5579
 6298TIP3    H240454   1.233   5.111   8.754  0.1103 -0.3613  0.4137
 6299TIP3   OH240455   1.146   3.920   2.783 -0.0428 -0.1490  0.2082
 6299TIP3    H140456   1.129   3.930   2.689  1.0036  0.4388  0.0725
 6299TIP3    H240457   1.125   4.005   2.821  0.8718  0.0499  0.2899
 6300TIP3   OH240458   0.248   6.456   7.903 -0.2443  0.3906 -0.0358
 6300TIP3    H140459   0.161   6.467   7.864 -0.9161 -0.9558  1.0064
 6300TIP3    H240460   0.231   6.445   7.996  0.9660 -0.7540  0.0704
 6301TIP3   OH240461   3.986   5.887   8.511 -0.5918 -0.3322 -0.3340
 6301TIP3    H140462   4.005   5.859   8.601 -2.4853  1.7128  0.7960
 6301TIP3    H240463   3.910   5.835   8.486 -0.6540 -0.2198 -0.3780
 6302TIP3   OH240464   2.871   4.137   1.552  0.0623  0.4937  0.4854
 6302TIP3    H140465   2.899   4.154   1.642  0.8273 -1.4946  0.6729
 6302TIP3    H240466   2.940   4.176   1.498  0.3080  0.4974  0.7955
 6303TIP3   OH240467   5.709   3.480   1.588 -0.1479 -0.0426 -0.4626
 6303TIP3    H140468   5.690   3.472   1.681 -1.4709  2.0048 -0.4702
 6303TIP3    H240469   5.645   3.423   1.545 -1.3478  1.0228 -0.1662
 6304TIP3   OH240470   4.818   1.633   2.161  0.4114  0.3400 -0.0576
 6304TIP3    H140471   4.798   1.661   2.251  1.5387 -0.0375  0.3243
 6304TIP3    H240472   4.898   1.581   2.169 -0.9098 -1.9902 -0.8978
 6305TIP3   OH240473   6.228   3.109   7.065  0.0681 -0.0752  0.2638
 6305TIP3    H140474   6.172   3.042   7.026  1.5283 -1.0666 -0.1900
 6305TIP3    H240475   6.192   3.122   7.153 -0.7897 -0.7618  0.0282
 6306TIP3   OH240476   5.144   6.087   0.227  0.3485  0.0422 -0.1577
 6306TIP3    H140477   5.220   6.035   0.254  0.6240  0.8326  0.6127
 6306TIP3    H240478   5.181   6.153   0.168 -0.0234 -0.6868 -1.2522
 6307TIP3   OH240479   3.216   2.584   1.424  0.7429  0.4161 -0.1600
 6307TIP3    H140480   3.259   2.503   1.395  0.6799  0.3333 -0.0263
 6307TIP3    H240481   3.149   2.601   1.358 -0.8018 -0.9039  0.9623
 6308TIP3   OH240482   6.658   3.939   2.650 -0.3789  0.2684 -0.0994
 6308TIP3    H140483   6.742   3.971   2.617 -0.1638  1.5941  1.5498
 6308TIP3    H240484   6.665   3.949   2.745 -2.2815  0.0985  0.0937
 6309TIP3   OH240485   3.871   2.190   1.119  0.4070 -0.1511 -0.7675
 6309TIP3    H140486   3.961   2.158   1.118  0.2499 -0.6762 -2.5974
 6309TIP3    H240487   3.826   2.135   1.054 -1.3231 -0.1311  0.3345
 6310TIP3   OH240488   2.191   6.726   1.527  0.1809  0.3006 -0.6114
 6310TIP3    H140489   2.100   6.722   1.558  0.7050 -1.0704  0.8763
 6310TIP3    H240490   2.219   6.815   1.550 -0.1071  0.0076  1.0539
 6311TIP3   OH240491   5.308   2.373   2.395 -0.2519 -0.1287 -0.0822
 6311TIP3    H140492   5.214   2.388   2.408 -0.6005 -2.5723  0.8102
 6311TIP3    H240493   5.333   2.314   2.466  1.6121 -0.7856 -1.2007
 6312TIP3   OH240494   2.205   5.851   0.833 -0.0615 -0.3761  0.3266
 6312TIP3    H140495   2.228   5.832   0.742 -0.5878 -1.8548  0.4871
 6312TIP3    H240496   2.130   5.912   0.826  0.7785  0.6328 -0.1977
 6313TIP3   OH240497   4.261   1.356   2.113 -0.0454 -0.3018  0.1086
 6313TIP3    H140498   4.288   1.402   2.193 -1.2781  1.6704 -0.5128
 6313TIP3    H240499   4.169   1.381   2.101  0.4214  0.5278 -2.5603
 6314TIP3   OH240500   2.245   0.082   1.216 -0.1127  0.0162 -0.4026
 6314TIP3    H140501   2.252   0.167   1.260 -1.0561 -0.3954  0.5815
 6314TIP3    H240502   2.197   0.100   1.136 -2.1179  0.1117  0.7733
 6315TIP3   OH240503   0.927   0.717   2.481  0.2558 -0.0655 -0.1307
 6315TIP3    H140504   0.945   0.732   2.574 -1.0680  1.3771 -0.0627
 6315TIP3    H240505   1.013   0.720   2.439  0.6477  2.3106  0.6879
 6316TIP3   OH240506   5.084   1.945   7.341  0.2614 -0.8047  0.4030
 6316TIP3    H140507   5.130   1.910   7.417 -0.3426  1.1580  1.7680
 6316TIP3    H240508   5.025   1.875   7.315  1.5019 -2.0567  0.8143
 6317TIP3   OH240509   3.132   4.370   7.577  0.2589 -0.5860  0.1335
 6317TIP3    H140510   3.044   4.349   7.607  0.3111  0.4900  1.1060
 6317TIP3    H240511   3.119   4.425   7.500  0.0921 -0.8958 -0.0611
 6318TIP3   OH240512   1.636   3.945   3.094 -0.3547  0.0219 -0.1933
 6318TIP3    H140513   1.684   4.026   3.110  0.8164 -0.4223 -1.3188
 6318TIP3    H240514   1.598   3.923   3.179  0.6728  0.8683  0.5154
 6319TIP3   OH240515   6.657   5.275   1.013  0.0084  0.5532 -0.0858
 6319TIP3    H140516   6.742   5.269   1.057 -0.4337 -1.4547  0.5924
 6319TIP3    H240517   6.603   5.209   1.056 -1.5803  1.0464 -1.2336
 6320TIP3   OH240518   2.905   5.669   1.380 -0.1373  0.2306 -0.1438
 6320TIP3    H140519   2.981   5.611   1.373  1.1204  1.8347 -0.2893
 6320TIP3    H240520   2.917   5.733   1.310 -1.6961  0.4716 -0.2334
 6321TIP3   OH240521   0.121   3.656   1.345  0.2876  0.2098 -0.3766
 6321TIP3    H140522   0.188   3.595   1.313 -1.1052 -0.3571 -2.4144
 6321TIP3    H240523   0.038   3.610   1.330 -0.5956  0.6577  2.6141
 6322TIP3   OH240524   6.605   3.975   2.373  0.0483  0.4754  0.4412
 6322TIP3    H140525   6.649   4.014   2.297 -1.9029  2.6809  0.3356
 6322TIP3    H240526   6.676   3.955   2.434  1.3434  2.4934 -0.3007
 6323TIP3   OH240527   4.058   6.507   0.073  0.0160 -0.6071 -0.5461
 6323TIP3    H140528   4.110   6.446   0.020  0.0999 -0.7590 -0.2885
 6323TIP3    H240529   3.981   6.457   0.099 -0.6867 -0.1244 -1.6337
 6324TIP3   OH240530   5.731   2.451   3.158 -0.3386  0.1067  0.1376
 6324TIP3    H140531   5.769   2.538   3.145  0.3279 -0.1837  0.1030
 6324TIP3    H240532   5.751   2.404   3.078  0.7067 -0.5746  0.7674
 6325TIP3   OH240533   3.304   2.860   0.792  0.5759 -0.2770 -0.0203
 6325TIP3    H140534   3.242   2.798   0.754  0.5323  1.6977 -3.5002
 6325TIP3    H240535   3.250   2.930   0.828  0.6993  0.3097 -0.9502
 6326TIP3   OH240536   5.282   5.682   2.667  0.2725  0.7780 -0.2386
 6326TIP3    H140537   5.272   5.733   2.747  1.5305 -0.3914  0.7172
 6326TIP3    H240538   5.203   5.628   2.664  0.5358  0.3232  0.6195
 6327TIP3   OH240539   2.775   3.674   2.323 -0.1045  0.0674 -0.4393
 6327TIP3    H140540   2.747   3.612   2.255  0.3562  1.4199 -1.9270
 6327TIP3    H240541   2.695   3.715   2.353 -0.1909  0.5150 -1.2502
 6328TIP3   OH240542   4.109   3.799   1.523 -0.5379  0.0382 -0.2120
 6328TIP3    H140543   4.119   3.861   1.451  1.1404 -0.1741 -0.1935
 6328TIP3    H240544   4.048   3.733   1.488 -1.0667  0.8200 -0.8092
 6329TIP3   OH240545   1.953   3.530   2.291  0.5127 -0.0466 -0.1828
 6329TIP3    H140546   1.921   3.502   2.377  1.4840 -1.1587 -0.1666
 6329TIP3    H240547   1.928   3.622   2.286 -0.6542 -0.2738  0.7682
 6330TIP3   OH240548   4.086   3.491   2.487 -0.5433 -0.3125  0.3229
 6330TIP3    H140549   4.006   3.468   2.440 -0.8827  0.4059  0.5339
 6330TIP3    H240550   4.096   3.420   2.551 -0.7698 -0.6343  0.0102
 6331TIP3   OH240551   5.900   2.623   1.319  0.2560 -0.1750 -0.4001
 6331TIP3    H140552   5.961   2.688   1.283  1.3484 -0.8475  0.1702
 6331TIP3    H240553   5.952   2.543   1.324 -0.7875 -0.8524 -0.1847
 6332TIP3   OH240554   0.630   5.836   0.564  0.1850  0.3148 -0.2091
 6332TIP3    H140555   0.725   5.838   0.578  0.4109 -0.4919 -1.5575
 6332TIP3    H240556   0.607   5.928   0.547  0.3844  0.8413  2.0155
 6333TIP3   OH240557   4.751   4.491   1.430  0.3062  0.1037 -0.1483
 6333TIP3    H140558   4.657   4.506   1.441 -0.1451 -2.7935  0.6550
 6333TIP3    H240559   4.765   4.493   1.335 -0.9735 -1.3286 -0.4011
 6334TIP3   OH240560   1.407   4.494   7.896  1.1252 -0.2899  0.1308
 6334TIP3    H140561   1.322   4.501   7.939  1.5293 -1.7104  1.2703
 6334TIP3    H240562   1.388   4.463   7.808  0.3625  1.3440 -0.3143
 6335TIP3   OH240563   6.697   2.781   0.631  0.6382  0.1497  0.5371
 6335TIP3    H140564   6.786   2.812   0.614 -0.1306  1.7614 -0.8673
 6335TIP3    H240565   6.661   2.846   0.692 -0.4968  1.2945 -1.2457
 6336TIP3   OH240566   5.679   5.426   0.055  0.0388  0.2429 -0.4146
 6336TIP3    H140567   5.717   5.481   0.124  0.4022  0.0621 -0.4705
 6336TIP3    H240568   5.606   5.478   0.021  0.2188  0.5827 -0.2891
 6337TIP3   OH240569   6.065   5.779   2.030  0.3629 -0.0039  0.6888
 6337TIP3    H140570   6.125   5.835   1.981 -0.3831  1.2520  1.1607
 6337TIP3    H240571   5.980   5.796   1.992 -0.0016 -0.1518  1.4138
 6338TIP3   OH240572   3.048   1.310   2.745  0.0835  0.6316 -0.0047
 6338TIP3    H140573   3.010   1.228   2.778  1.3425  0.2858  0.6643
 6338TIP3    H240574   2.990   1.378   2.777  0.7599  0.2326  2.2631
 6339TIP3   OH240575   5.753   3.133   1.719 -0.0274  0.1377 -0.2871
 6339TIP3    H140576   5.806   3.195   1.769  0.1124 -0.6482  0.5517
 6339TIP3    H240577   5.779   3.047   1.750 -0.9098 -0.3168 -0.7481
 6340TIP3   OH240578   0.471   2.478   8.633  0.4887  0.1790 -0.3685
 6340TIP3    H140579   0.427   2.398   8.603  0.0229  0.6496 -0.9614
 6340TIP3    H240580   0.452   2.483   8.726  0.2027 -0.2045 -0.4065
 6341TIP3   OH240581   5.798   6.287   1.249  0.4139  0.0261  0.2692
 6341TIP3    H140582   5.732   6.323   1.308  1.3319  1.0120  0.7401
 6341TIP3    H240583   5.764   6.303   1.161 -1.0947 -1.6941  0.4893
 6342TIP3   OH240584   4.278   2.200   0.348  0.3647  0.0251 -0.2477
 6342TIP3    H140585   4.205   2.256   0.322 -0.0134  0.0776  0.8518
 6342TIP3    H240586   4.328   2.186   0.268 -2.0695 -1.8442 -1.5727
 6343TIP3   OH240587   1.275   2.310   1.641 -0.2560 -0.1793 -0.4926
 6343TIP3    H140588   1.354   2.313   1.694  0.4097 -2.6426 -1.2681
 6343TIP3    H240589   1.271   2.221   1.607 -3.6491 -0.3376 -0.0538
 6344TIP3   OH240590   0.823   4.593   8.769  0.3690  0.0943  0.1659
 6344TIP3    H140591   0.781   4.667   8.726  1.0003  0.2309 -0.2272
 6344TIP3    H240592   0.788   4.516   8.724 -0.8368  0.0896  1.0471
 6345TIP3   OH240593   3.836   5.617   1.679  0.0815  0.7230  0.2932
 6345TIP3    H140594   3.917   5.668   1.674 -0.2153  1.1480 -0.4079
 6345TIP3    H240595   3.804   5.615   1.589 -0.3713  0.0361  0.4618
 6346TIP3   OH240596   4.400   5.584   2.416  0.2217 -0.1759 -0.3793
 6346TIP3    H140597   4.310   5.576   2.385  0.4436  0.1579 -1.1267
 6346TIP3    H240598   4.431   5.667   2.380  0.2985  0.5339  1.2437
 6347TIP3   OH240599   4.951   3.019   0.823 -0.1477 -0.3414 -0.0745
 6347TIP3    H140600   4.942   3.024   0.919 -2.4820 -0.3832 -0.2457
 6347TIP3    H240601   4.930   3.108   0.793 -1.2245 -0.7640 -0.6280
 6348TIP3   OH240602   2.360   0.375   1.231  0.0607 -0.2255 -0.4248
 6348TIP3    H140603   2.351   0.317   1.156 -0.4808 -0.3200 -0.2861
 6348TIP3    H240604   2.324   0.459   1.202  0.0809 -0.1906 -0.3503
 6349TIP3   OH240605   0.717   1.787   2.461 -0.6872  0.2167  0.2976
 6349TIP3    H140606   0.672   1.761   2.541 -1.1138  0.7203  0.2269
 6349TIP3    H240607   0.749   1.875   2.479  0.0580 -0.0427  0.2564
 6350TIP3   OH240608   3.942   5.810   1.943 -0.0141 -0.5424  0.2868
 6350TIP3    H140609   3.943   5.896   1.985  1.2531 -0.2803 -0.2202
 6350TIP3    H240610   3.986   5.824   1.859  0.9552 -1.8401  0.5504
 6351TIP3   OH240611   1.120   2.688   8.852 -0.1302  0.0341 -0.4867
 6351TIP3    H140612   1.154   2.622   8.913 -0.5840 -0.1317 -0.4118
 6351TIP3    H240613   1.094   2.638   8.775 -1.4435 -0.0223 -0.0358
 6352TIP3   OH240614   5.180   3.235   0.556  0.8385 -0.2997 -0.0948
 6352TIP3    H140615   5.188   3.194   0.642 -1.3185 -0.5539  0.0285
 6352TIP3    H240616   5.181   3.161   0.495 -1.9593 -0.5766  0.0588
 6353TIP3   OH240617   1.555   0.816   8.808  0.2651 -0.0650 -0.0368
 6353TIP3    H140618   1.470   0.772   8.808  0.6887 -0.9176  0.5920
 6353TIP3    H240619   1.552   0.873   8.731 -1.2601  0.7117  0.5651
 6354TIP3   OH240620   1.818   0.327   2.150 -0.3474 -0.0318 -0.5928
 6354TIP3    H140621   1.740   0.331   2.206 -0.5979 -0.8478 -0.8789
 6354TIP3    H240622   1.847   0.236   2.155  1.3336  0.5194  0.4938
 6355TIP3   OH240623   2.638   5.341   8.401  0.5628  0.2288 -0.2556
 6355TIP3    H140624   2.608   5.411   8.459 -0.8565  0.0316 -0.7028
 6355TIP3    H240625   2.573   5.339   8.331  1.0122 -1.0122 -0.6575
 6356TIP3   OH240626   1.213   3.145   8.669  0.1462  0.0127 -0.3716
 6356TIP3    H140627   1.216   3.158   8.764 -0.6281 -0.3430 -0.2971
 6356TIP3    H240628   1.232   3.052   8.657  0.5312  0.1149 -0.5908
 6357TIP3   OH240629   6.710   6.582   8.491 -0.0499  0.3581 -0.1395
 6357TIP3    H140630   6.626   6.542   8.514  1.1307 -2.3276 -0.0771
 6357TIP3    H240631   6.741   6.621   8.573  0.1313 -1.4018  0.6866
 6358TIP3   OH240632   3.557   2.872   1.517 -0.1628  0.4221  0.8155
 6358TIP3    H140633   3.578   2.879   1.610 -0.4400  0.2789  0.8858
 6358TIP3    H240634   3.497   2.945   1.501 -3.6024 -2.0254  1.6892
 6359TIP3   OH240635   5.348   1.904   8.285 -0.6030  0.3353  0.0155
 6359TIP3    H140636   5.254   1.887   8.282 -0.3578 -1.0923 -0.1776
 6359TIP3    H240637   5.373   1.920   8.194 -0.7571  1.4021  0.1456
 6360TIP3   OH240638   0.013   2.444   1.329 -0.3890 -0.5136  0.3795
 6360TIP3    H140639  -0.007   2.438   1.236  1.2851 -2.3829  0.0644
 6360TIP3    H240640   0.069   2.521   1.336  0.9190 -1.3379 -0.5113
 6361TIP3   OH240641   5.924   6.345   0.039 -0.0430 -0.0840 -0.0167
 6361TIP3    H140642   5.851   6.291   0.067 -0.8265  0.8287 -0.2479
 6361TIP3    H240643   5.890   6.394  -0.036  0.9980 -0.0889 -0.5112
 6362TIP3   OH240644   5.592   4.357   1.855 -0.3452 -0.3371 -0.0441
 6362TIP3    H140645   5.547   4.404   1.925 -1.1185  1.0070 -1.3882
 6362TIP3    H240646   5.610   4.271   1.892 -1.8800 -0.1007  1.3834
 6363TIP3   OH240647   1.320   6.191   8.172  0.4551 -0.0567 -0.3613
 6363TIP3    H140648   1.248   6.184   8.234  0.7634 -1.1560 -0.1058
 6363TIP3    H240649   1.396   6.215   8.226  0.3342  0.9604 -0.6097
 6364TIP3   OH240650   1.018   1.849   0.661  0.3345 -0.8765 -0.4996
 6364TIP3    H140651   1.042   1.873   0.571  1.8566 -2.5551 -0.6085
 6364TIP3    H240652   1.032   1.929   0.712 -1.8710  0.5104 -1.9013
 6365TIP3   OH240653   1.061   0.706   2.210  0.1950 -0.2967 -0.0518
 6365TIP3    H140654   1.127   0.739   2.270 -2.4252  1.2240  2.2764
 6365TIP3    H240655   1.066   0.611   2.216  1.0380 -0.1745  1.3858
 6366TIP3   OH240656   4.577   0.684   8.599 -0.2425  0.0947 -0.0787
 6366TIP3    H140657   4.605   0.674   8.508 -3.4228 -1.6226 -1.0296
 6366TIP3    H240658   4.658   0.682   8.650  1.4745 -2.4014 -2.6142
 6367TIP3   OH240659   6.111   2.769   7.607 -0.7071 -0.3155  0.5868
 6367TIP3    H140660   6.164   2.778   7.686 -0.4829  0.2499  0.3774
 6367TIP3    H240661   6.133   2.846   7.555 -0.9779 -0.5988  0.0470
 6368TIP3   OH240662   5.450   4.724   8.713  0.1043  0.0341  0.4349
 6368TIP3    H140663   5.511   4.782   8.669 -1.2766  1.3104  0.1275
 6368TIP3    H240664   5.497   4.641   8.721  1.3579  0.5686 -1.0118
 6369TIP3   OH240665   4.975   3.628   2.034 -0.0291  0.2604  0.0111
 6369TIP3    H140666   4.941   3.699   2.088 -1.1589  0.3052 -0.7156
 6369TIP3    H240667   5.068   3.623   2.056 -0.6249 -0.4515  2.7453
 6370TIP3   OH240668   4.789   5.926   1.219  0.3817  0.3914 -0.2245
 6370TIP3    H140669   4.814   5.849   1.168  0.1454 -1.2375  1.9659
 6370TIP3    H240670   4.707   5.955   1.180 -0.2168 -1.2992 -0.3204
 6371TIP3   OH240671   3.770   5.311   3.552  0.6509 -0.5239  0.2665
 6371TIP3    H140672   3.843   5.251   3.537  0.1952 -1.2194  0.8171
 6371TIP3    H240673   3.803   5.374   3.616  1.2536  0.0532 -0.5883
 6372TIP3   OH240674   3.036   1.675   0.907 -0.2060 -0.1436  0.4534
 6372TIP3    H140675   3.073   1.642   0.988 -0.9250 -1.1369  0.3993
 6372TIP3    H240676   3.041   1.770   0.914  0.8160 -0.2391  1.1398
 6373TIP3   OH240677   6.609   1.249   2.698  0.4683  0.2223  0.5639
 6373TIP3    H140678   6.613   1.167   2.747 -1.8816  0.1273  0.6856
 6373TIP3    H240679   6.674   1.238   2.628  0.2811 -1.6906  0.6368
 6374TIP3   OH240680   4.344   6.649   2.453  0.9705 -0.4145 -0.5461
 6374TIP3    H140681   4.353   6.732   2.408  1.0039 -0.1024  0.0243
 6374TIP3    H240682   4.295   6.593   2.392 -2.4527  1.1790  0.4945
 6375TIP3   OH240683   0.258   4.561   2.371 -0.0482 -0.1293  0.2961
 6375TIP3    H140684   0.175   4.514   2.364  0.6253 -1.4438  0.8007
 6375TIP3    H240685   0.274   4.595   2.283  0.3231 -2.4246 -0.5757
 6376TIP3   OH240686   2.234   1.780   1.495  0.2662 -0.0136 -0.9396
 6376TIP3    H140687   2.261   1.866   1.462  1.2395  0.4018  0.8237
 6376TIP3    H240688   2.282   1.770   1.577 -2.5793 -0.6743  0.7681
 6377TIP3   OH240689   2.725   5.429   1.393  0.1534  0.1816  0.1594
 6377TIP3    H140690   2.792   5.489   1.426  1.6382  0.0797 -2.4043
 6377TIP3    H240691   2.716   5.453   1.301 -2.3847 -0.7376  0.1112
 6378TIP3   OH240692   3.689   0.573   8.593 -0.2167  0.2417 -0.1038
 6378TIP3    H140693   3.617   0.529   8.637  1.3415  0.1188  2.5154
 6378TIP3    H240694   3.705   0.652   8.645  0.7172  0.9401 -1.3801
 6379TIP3   OH240695   5.299   6.385   2.643 -0.1571  0.6890 -0.4972
 6379TIP3    H140696   5.268   6.357   2.729  1.7616 -0.0210  0.0283
 6379TIP3    H240697   5.371   6.445   2.661  0.4897  0.2860 -1.6047
 6380TIP3   OH240698   0.471   4.198   1.124 -0.2776  0.3459  0.5378
 6380TIP3    H140699   0.437   4.258   1.058  0.0073  0.8662  0.8573
 6380TIP3    H240700   0.510   4.126   1.074  0.2996  0.9349  0.1275
 6381TIP3   OH240701   1.158   5.252   2.119  0.1144  0.7706  0.0801
 6381TIP3    H140702   1.223   5.253   2.048 -0.9320 -0.5987 -0.9620
 6381TIP3    H240703   1.078   5.286   2.079 -0.5021 -0.0411  0.5783
 6382TIP3   OH240704   2.827   5.936   2.324 -0.3400  0.1363  1.0536
 6382TIP3    H140705   2.873   5.866   2.278 -0.4650  0.9787 -0.4110
 6382TIP3    H240706   2.896   5.984   2.370  0.1146  0.6746 -0.1571
 6383TIP3   OH240707   3.752   2.148   1.756  0.8822  0.3281 -0.1027
 6383TIP3    H140708   3.691   2.198   1.703 -0.5096 -0.8777  0.2899
 6383TIP3    H240709   3.783   2.210   1.822  1.5290  1.4513 -1.4199
 6384TIP3   OH240710   3.326   3.315   8.421  0.2750 -0.2842  0.4265
 6384TIP3    H140711   3.374   3.300   8.502  1.4466  1.5460  0.1233
 6384TIP3    H240712   3.267   3.388   8.441 -1.1224 -1.3072  0.2554
 6385TIP3   OH240713   0.771   3.855   0.591  0.4411  0.4330  0.5877
 6385TIP3    H140714   0.783   3.843   0.497 -0.7300 -0.1786  0.4984
 6385TIP3    H240715   0.702   3.921   0.598  1.8962  1.9980  1.0574
 6386TIP3   OH240716   5.898   3.156   7.711  0.3549 -0.1079 -0.1290
 6386TIP3    H140717   5.894   3.131   7.619  0.7726 -0.3060 -0.0959
 6386TIP3    H240718   5.939   3.242   7.711  0.6568 -0.2494 -0.1077
 6387TIP3   OH240719   3.318   5.890   8.271  0.6621  0.3334 -0.2390
 6387TIP3    H140720   3.379   5.913   8.340 -1.3226  2.2817  1.0236
 6387TIP3    H240721   3.342   5.946   8.198 -0.7745  2.6646  0.9672
 6388TIP3   OH240722   3.902   2.300   0.129 -0.4298 -0.0920  0.1680
 6388TIP3    H140723   3.948   2.304   0.212 -1.0978  0.3839  0.5210
 6388TIP3    H240724   3.966   2.265   0.067 -0.6819 -2.9292  1.3993
 6389TIP3   OH240725   5.599   0.108   1.989 -0.2488 -0.1877  0.0701
 6389TIP3    H140726   5.590   0.019   1.956  3.4771 -0.1461 -1.5510
 6389TIP3    H240727   5.552   0.107   2.073 -0.3683 -3.6465  0.1146
 6390TIP3   OH240728   5.183   2.476   3.170  0.3799 -0.2153 -0.4715
 6390TIP3    H140729   5.238   2.553   3.154 -0.6726  1.3098  2.5131
 6390TIP3    H240730   5.236   2.420   3.226  1.0577 -1.6959 -2.4579
 6391TIP3   OH240731   3.539   3.085   8.704  0.7747  0.0176  0.1842
 6391TIP3    H140732   3.502   3.067   8.618 -0.7011 -0.0739  0.8195
 6391TIP3    H240733   3.614   3.142   8.686  0.0942  0.5472 -1.0999
 6392TIP3   OH240734   0.057   2.364   1.784 -0.6095  0.0155 -0.3732
 6392TIP3    H140735   0.105   2.444   1.766 -0.4225 -0.1311 -0.5298
 6392TIP3    H240736  -0.001   2.353   1.708 -1.6993  0.7781  0.3072
 6393TIP3   OH240737   4.239   2.329   0.888 -0.3201 -0.1092  0.2198
 6393TIP3    H140738   4.158   2.367   0.853 -0.3187 -0.9185 -0.7154
 6393TIP3    H240739   4.210   2.256   0.943 -0.2281 -1.9925 -2.0609
 6394TIP3   OH240740   5.673   4.196   0.712  0.1055  0.4022  0.0709
 6394TIP3    H140741   5.645   4.111   0.676  0.9876  0.7539 -1.5565
 6394TIP3    H240742   5.599   4.225   0.765 -0.7790 -0.7513 -0.4756
 6395TIP3   OH240743   1.559   3.814   1.376  0.0078 -0.0994 -0.1389
 6395TIP3    H140744   1.605   3.777   1.300 -0.0798 -1.3034  0.3742
 6395TIP3    H240745   1.522   3.739   1.421 -2.2563  0.8008 -0.3688
 6396TIP3   OH240746   0.464   4.785   1.057 -0.2615 -0.0705 -0.6799
 6396TIP3    H140747   0.496   4.770   1.146 -2.6206  0.4819  0.3350
 6396TIP3    H240748   0.457   4.697   1.019 -0.0002 -0.3737 -0.0397
 6397TIP3   OH240749   4.608   3.457   0.993 -0.3993  0.6768 -0.1339
 6397TIP3    H140750   4.560   3.466   1.075 -0.7175  0.0633 -0.2449
 6397TIP3    H240751   4.662   3.536   0.987 -0.1275  0.5686  0.8188
 6398TIP3   OH240752   4.153   4.432   7.508  0.3037  0.1436  0.9806
 6398TIP3    H140753   4.161   4.527   7.514  1.0186  0.3373 -1.7272
 6398TIP3    H240754   4.144   4.403   7.599  1.4155  2.6632  1.9900
 6399TIP3   OH240755   2.730   4.816   8.210  0.4276 -0.9307  0.3059
 6399TIP3    H140756   2.785   4.737   8.216  0.4408 -1.0775 -1.4594
 6399TIP3    H240757   2.790   4.888   8.229  1.4025 -1.0494 -2.0349
 6400TIP3   OH240758   5.270   0.612   8.231 -0.0860  0.3092 -0.2868
 6400TIP3    H140759   5.274   0.657   8.315  2.2379  0.8067 -0.6149
 6400TIP3    H240760   5.214   0.536   8.247 -1.9512  1.8510  0.9494
 6401TIP3   OH240761   1.944   4.611   7.795  0.4754  0.4887  0.1021
 6401TIP3    H140762   1.909   4.693   7.760  1.3196  0.8485  0.0817
 6401TIP3    H240763   1.870   4.550   7.791 -0.5446  1.5722  1.2637
 6402TIP3   OH240764   1.582   0.348   2.271 -0.0922 -0.2482 -0.2402
 6402TIP3    H140765   1.501   0.297   2.274  1.4622 -2.8326  1.1498
 6402TIP3    H240766   1.589   0.387   2.358  0.2525 -0.2439 -0.2673
 6403TIP3   OH240767   0.400   6.430   0.292  0.3522  0.5575 -0.0432
 6403TIP3    H140768   0.466   6.396   0.351 -0.0561 -0.2984 -0.0570
 6403TIP3    H240769   0.445   6.495   0.239  1.7138 -1.3078 -1.3315
 6404TIP3   OH240770   0.384   1.920   8.820  0.2131 -0.2859  0.1564
 6404TIP3    H140771   0.369   1.827   8.804  0.7710 -0.5576  1.1400
 6404TIP3    H240772   0.459   1.922   8.879 -1.3607  0.6579  2.2667
 6405TIP3   OH240773   1.859   5.762   8.862  0.2914  0.2510 -0.0248
 6405TIP3    H140774   1.831   5.670   8.863 -1.1103  0.6358 -0.6316
 6405TIP3    H240775   1.890   5.777   8.773  0.0795  0.4732 -0.0646
 6406TIP3   OH240776   6.564   6.463   8.226 -0.2728  0.2392 -0.0718
 6406TIP3    H140777   6.549   6.527   8.297 -2.4309 -0.6241  0.3219
 6406TIP3    H240778   6.527   6.382   8.259 -1.4702 -0.1573 -2.2516
 6407TIP3   OH240779   1.968   2.422   1.997  0.7707 -0.5040 -0.3666
 6407TIP3    H140780   1.983   2.512   2.025  0.7091 -0.6136  0.0306
 6407TIP3    H240781   2.041   2.402   1.938 -0.4723  0.6026 -2.4089
 6408TIP3   OH240782   2.946   5.858   8.144 -0.2488 -0.0507  0.1989
 6408TIP3    H140783   2.897   5.776   8.138 -1.2967  0.6516 -2.7417
 6408TIP3    H240784   2.905   5.905   8.216 -2.6864 -0.3544 -0.8707
 6409TIP3   OH240785   6.731   2.143   3.464 -0.8876  0.0961  0.1541
 6409TIP3    H140786   6.726   2.050   3.444 -1.5887 -0.0439  0.8912
 6409TIP3    H240787   6.822   2.166   3.450 -1.1246 -0.1565 -2.2810
 6410TIP3   OH240788   4.499   6.332   1.935  0.2305 -0.0244 -0.3261
 6410TIP3    H140789   4.467   6.242   1.934 -1.0494  0.4091 -0.0901
 6410TIP3    H240790   4.593   6.324   1.915  0.5384 -1.5528  1.4436
 6411TIP3   OH240791   4.978   0.590   7.881  0.3711 -0.0233 -0.4472
 6411TIP3    H140792   5.041   0.529   7.920 -1.3177 -0.1273  2.3510
 6411TIP3    H240793   5.012   0.677   7.904  1.0595  0.0509 -1.6379
 6412TIP3   OH240794   1.113   6.526   2.995  0.7918  0.4680  0.1634
 6412TIP3    H140795   1.200   6.491   3.011  0.2602 -0.4819  1.0808
 6412TIP3    H240796   1.055   6.451   3.005 -0.2830  1.3898  1.1601
 6413TIP3   OH240797   0.586   1.774   1.470  0.2130 -0.5455  0.2152
 6413TIP3    H140798   0.675   1.810   1.469 -0.0513  0.1664 -1.4672
 6413TIP3    H240799   0.535   1.838   1.520  0.2954  0.0175 -0.4052
 6414TIP3   OH240800   2.319   6.608   7.707  0.0177 -0.1606  0.0165
 6414TIP3    H140801   2.261   6.657   7.766 -0.7249 -0.2748 -0.6014
 6414TIP3    H240802   2.391   6.669   7.689 -0.0633  0.1008  0.5469
 6415TIP3   OH240803   4.832   1.291   1.416  0.0344 -0.5839 -0.1039
 6415TIP3    H140804   4.899   1.247   1.364 -0.2342 -0.1501 -0.8372
 6415TIP3    H240805   4.863   1.382   1.423 -0.7592 -0.2383 -0.9539
 6416TIP3   OH240806   2.920   3.822   0.045 -0.0661  0.2878 -0.2208
 6416TIP3    H140807   2.826   3.822   0.026 -0.1195  0.3302  0.0405
 6416TIP3    H240808   2.925   3.814   0.140  0.2010  0.0597 -0.2544
 6417TIP3   OH240809   4.055   6.643   2.732  0.3166 -0.0018 -0.3871
 6417TIP3    H140810   4.089   6.685   2.811  1.0025  2.8136 -2.0590
 6417TIP3    H240811   4.116   6.668   2.662 -2.2705  0.9158 -2.5151
 6418TIP3   OH240812   0.080   3.065   8.654  0.1046 -0.2962 -0.4657
 6418TIP3    H140813  -0.006   3.107   8.647 -0.0963 -0.7587 -0.8655
 6418TIP3    H240814   0.108   3.054   8.563  0.6107 -0.1094 -0.3344
 6419TIP3   OH240815   5.218   1.894   2.519 -0.1926  0.4112  0.1735
 6419TIP3    H140816   5.201   1.823   2.458 -2.2714  1.3822 -0.4833
 6419TIP3    H240817   5.152   1.960   2.497  0.9932  2.0987  1.4380
 6420TIP3   OH240818   6.617   0.114   7.788 -0.0950  0.5971  0.0277
 6420TIP3    H140819   6.544   0.067   7.827  0.7137  0.0205  0.8622
 6420TIP3    H240820   6.686   0.112   7.854  0.4822  1.6543 -0.5096
 6421TIP3   OH240821   3.289   0.530   7.511  0.6246  0.5878  0.2216
 6421TIP3    H140822   3.350   0.600   7.485 -1.1195  1.6406 -1.2574
 6421TIP3    H240823   3.337   0.449   7.491  1.2621  1.3766 -1.7456
 6422TIP3   OH240824   0.243   4.501   1.136  0.3176  0.2861 -0.0448
 6422TIP3    H140825   0.170   4.463   1.185  0.6234 -0.8524 -0.4385
 6422TIP3    H240826   0.302   4.534   1.204 -0.0291  0.1875  0.3111
 6423TIP3   OH240827   4.521   1.934   1.879  0.1050  0.2228  0.7523
 6423TIP3    H140828   4.429   1.955   1.867 -0.7890 -3.4400 -0.0496
 6423TIP3    H240829   4.554   1.923   1.790  0.7934 -0.3567  1.0711
 6424TIP3   OH240830   6.666   3.536   1.298  0.4134  0.0324  0.0889
 6424TIP3    H140831   6.626   3.544   1.385  0.5418  3.1761 -0.0243
 6424TIP3    H240832   6.613   3.593   1.242  0.8283 -1.2883 -1.7506
 6425TIP3   OH240833   4.990   5.978   2.364  0.4266  0.2670 -0.2086
 6425TIP3    H140834   4.900   5.981   2.396 -0.1817 -0.2301 -1.7615
 6425TIP3    H240835   4.990   5.907   2.300  2.0891 -0.1518  0.2161
 6426TIP3   OH240836   2.626   2.511   1.444 -0.2021 -0.3819 -0.3647
 6426TIP3    H140837   2.674   2.502   1.527  0.2237  0.3304 -0.5206
 6426TIP3    H240838   2.544   2.464   1.459  0.5297 -1.5997 -0.0867
 6427TIP3   OH240839   1.621   5.472   8.695 -0.3186  0.9121  0.4295
 6427TIP3    H140840   1.624   5.441   8.604 -0.4892  1.1102  0.3575
 6427TIP3    H240841   1.528   5.489   8.712 -0.1673  1.9526  0.2804
 6428TIP3   OH240842   0.765   0.231   8.723  0.1778  0.0313 -0.0897
 6428TIP3    H140843   0.789   0.156   8.777 -1.2226 -3.1494 -3.4870
 6428TIP3    H240844   0.686   0.266   8.764 -1.0183 -2.4631 -0.0867
 6429TIP3   OH240845   4.355   3.945   1.920  0.3150 -0.5523  0.3181
 6429TIP3    H140846   4.439   3.975   1.954 -0.3276 -0.9107  2.3699
 6429TIP3    H240847   4.320   4.021   1.872  1.6363 -0.3086 -0.3204
 6430TIP3   OH240848   4.181   3.241   2.154 -0.2360  0.2487  0.5953
 6430TIP3    H140849   4.090   3.215   2.136 -0.1658  0.3172  0.1442
 6430TIP3    H240850   4.223   3.160   2.184 -0.3712  0.1514  0.5249
 6431TIP3   OH240851   4.808   2.952   2.281 -0.2088 -0.1645 -0.5437
 6431TIP3    H140852   4.876   3.003   2.325 -1.6666  1.5092 -0.0792
 6431TIP3    H240853   4.786   2.883   2.343  1.5240 -1.1617 -1.0002
 6432TIP3   OH240854   1.917   4.102   2.922  0.3642 -0.4596 -0.2999
 6432TIP3    H140855   1.979   4.171   2.944 -1.2984  0.9337  0.1720
 6432TIP3    H240856   1.952   4.024   2.966 -0.4828  1.2174  3.8055
 6433TIP3   OH240857   5.132   3.032   7.663 -0.0455 -0.2687 -1.2149
 6433TIP3    H140858   5.213   3.028   7.612 -0.4257 -0.1351 -1.8307
 6433TIP3    H240859   5.109   2.941   7.680  1.0491 -0.3125  0.2884
 6434TIP3   OH240860   2.453   5.034   7.699  0.4669  0.1514 -0.5294
 6434TIP3    H140861   2.435   5.127   7.709 -0.0302  0.0449 -0.3985
 6434TIP3    H240862   2.549   5.028   7.697  0.5112  0.6060  0.0143
 6435TIP3   OH240863   2.523   1.790   2.118 -0.1887 -0.0544 -0.1005
 6435TIP3    H140864   2.581   1.761   2.047 -0.4560  0.5114 -0.5589
 6435TIP3    H240865   2.564   1.755   2.197  0.8647  0.4460 -0.3981
 6436TIP3   OH240866   2.607   4.152   0.968  0.0858 -0.1646 -0.0437
 6436TIP3    H140867   2.536   4.094   0.995 -0.2558  0.3440  0.1672
 6436TIP3    H240868   2.642   4.187   1.050  0.1503  0.0851 -0.1753
 6437TIP3   OH240869   6.736   6.223   7.349 -0.0551 -0.3311 -0.2631
 6437TIP3    H140870   6.818   6.233   7.301 -0.5781 -0.7521 -1.2778
 6437TIP3    H240871   6.670   6.260   7.290 -0.3734  1.9318  1.3803
 6438TIP3   OH240872   5.888   3.469   8.313 -0.7786  0.0268 -0.1536
 6438TIP3    H140873   5.904   3.399   8.377 -1.8352 -0.4982 -0.4361
 6438TIP3    H240874   5.958   3.532   8.329  0.9048 -1.6161 -0.6556
 6439TIP3   OH240875   1.032   6.298   1.182  0.3076 -0.3003  0.6533
 6439TIP3    H140876   1.017   6.354   1.258 -0.0502 -0.1047  0.4423
 6439TIP3    H240877   1.125   6.278   1.184  1.0602  2.5179 -0.7661
 6440TIP3   OH240878   6.077   6.642   1.340 -0.0358  0.0654 -0.0258
 6440TIP3    H140879   6.094   6.683   1.255 -1.7295 -1.7580 -1.3447
 6440TIP3    H240880   5.982   6.644   1.349 -0.2560 -3.1986 -0.1101
 6441TIP3   OH240881   4.553   5.170   2.710 -0.2612  0.6839  0.2649
 6441TIP3    H140882   4.490   5.219   2.657 -0.7687 -0.0365  0.1763
 6441TIP3    H240883   4.504   5.092   2.738  0.4261  0.3874  0.6622
 6442TIP3   OH240884   3.378   4.699   1.788  0.6632  0.1217  0.1547
 6442TIP3    H140885   3.350   4.610   1.810  0.8571  0.4734  1.9128
 6442TIP3    H240886   3.297   4.747   1.777  0.5544 -0.2693 -0.9078
 6443TIP3   OH240887   4.260   5.889   0.987  0.3218 -0.1939  0.4775
 6443TIP3    H140888   4.253   5.810   0.934 -2.2935  0.4112 -0.2167
 6443TIP3    H240889   4.274   5.857   1.076 -2.2273 -1.5905  0.4748
 6444TIP3   OH240890   5.242   2.371   7.547  0.3336 -0.5549  0.8569
 6444TIP3    H140891   5.186   2.294   7.544  0.2716 -0.4763 -1.4251
 6444TIP3    H240892   5.195   2.437   7.495  1.4775  0.2496  0.8157
 6445TIP3   OH240893   4.600   3.933   2.435 -0.5829  0.0562  0.6309
 6445TIP3    H140894   4.605   3.999   2.366 -2.0510  0.2056  0.6445
 6445TIP3    H240895   4.619   3.851   2.391  0.5164  0.3789  0.4681
 6446TIP3   OH240896   2.504   1.466   1.314 -0.6349 -0.0147 -0.8072
 6446TIP3    H140897   2.454   1.547   1.324 -3.5951 -1.9294  2.2304
 6446TIP3    H240898   2.490   1.441   1.222 -4.2848  0.3050 -0.4998
 6447TIP3   OH240899   5.360   3.718   1.549 -0.3122  0.1308  0.0499
 6447TIP3    H140900   5.388   3.710   1.641  0.6737  0.7935 -0.1729
 6447TIP3    H240901   5.278   3.669   1.545 -0.6586  0.5289  1.4126
 6448TIP3   OH240902   3.275   2.168   2.183 -0.0283 -0.5290  0.1232
 6448TIP3    H140903   3.201   2.200   2.234 -1.0332 -0.7072 -1.1626
 6448TIP3    H240904   3.281   2.228   2.109 -0.4322 -1.8863 -1.0548
 6449TIP3   OH240905   5.947   3.113   3.072 -0.8078 -0.0682  0.6587
 6449TIP3    H140906   5.888   3.186   3.056 -0.7927 -0.3161 -0.6509
 6449TIP3    H240907   5.895   3.035   3.049 -0.8870 -0.5076  2.2051
 6450TIP3   OH240908   4.901   1.747   8.844 -0.5138 -0.5587  0.1663
 6450TIP3    H140909   4.991   1.764   8.873 -0.3475 -1.1364 -0.0098
 6450TIP3    H240910   4.910   1.714   8.755 -1.0068  0.9213 -0.4718
 6451TIP3   OH240911   6.124   4.199   0.110 -0.2959 -0.2812  0.0830
 6451TIP3    H140912   6.088   4.136   0.173  0.2200  0.2437  0.9334
 6451TIP3    H240913   6.072   4.279   0.125 -1.2806 -0.6261 -1.3339
 6452TIP3   OH240914   0.827   3.194   2.387 -0.4675  0.4903 -0.1616
 6452TIP3    H140915   0.825   3.098   2.387 -2.2729  0.4611  1.4123
 6452TIP3    H240916   0.915   3.216   2.418 -0.3519 -0.7005  0.4169
 6453TIP3   OH240917   0.248   3.816   8.149 -0.3825  0.1506 -0.0106
 6453TIP3    H140918   0.170   3.826   8.096 -0.3056  1.2550  0.0646
 6453TIP3    H240919   0.307   3.762   8.096 -1.3927 -1.2139  0.1830
 6454TIP3   OH240920   5.376   4.492   0.183  0.6190  0.3878  0.6683
 6454TIP3    H140921   5.403   4.580   0.209  0.7082  0.7124 -0.4849
 6454TIP3    H240922   5.402   4.436   0.256  0.1652  1.3707  1.6063
 6455TIP3   OH240923   6.674   5.517   7.796 -0.1819  0.2261  0.0647
 6455TIP3    H140924   6.653   5.500   7.704 -0.9062 -0.2613  0.3076
 6455TIP3    H240925   6.675   5.612   7.803  1.3657  0.2897 -0.7617
 6456TIP3   OH240926   0.031   1.278   0.768 -0.0551 -0.4506  0.0943
 6456TIP3    H140927  -0.023   1.250   0.842 -1.1729  0.6483 -0.2627
 6456TIP3    H240928  -0.032   1.286   0.696  0.5513  1.0641 -0.2853
 6457TIP3   OH240929   0.991   5.535   2.402 -0.3047 -0.0027  0.2071
 6457TIP3    H140930   1.072   5.521   2.353 -0.7143  1.3582 -0.9129
 6457TIP3    H240931   1.018   5.582   2.481 -0.0856  1.2745 -0.6044
 6458TIP3   OH240932   5.026   0.691   2.074  0.2778  0.5800  0.3403
 6458TIP3    H140933   4.945   0.648   2.050  0.7689  0.0946 -0.5031
 6458TIP3    H240934   5.039   0.669   2.166 -0.0975 -0.0681  0.2398
 6459TIP3   OH240935   4.887   4.899   8.258  0.4622 -0.5507  0.0016
 6459TIP3    H140936   4.867   4.870   8.169 -0.4921 -1.9257  0.6369
 6459TIP3    H240937   4.814   4.956   8.282  0.7582 -0.1163 -0.1003
 6460TIP3   OH240938   3.279   5.136   0.746 -0.1177  0.1110 -0.2236
 6460TIP3    H140939   3.368   5.154   0.777 -0.6736  1.5375  0.6133
 6460TIP3    H240940   3.223   5.188   0.803 -1.6650 -2.1780  0.4950
 6461TIP3   OH240941   3.583   4.823   0.144  1.3385  0.3498  0.6248
 6461TIP3    H140942   3.608   4.809   0.235 -0.9346  0.8737  1.4154
 6461TIP3    H240943   3.545   4.911   0.143 -1.5405 -0.7689 -0.0639
 6462TIP3   OH240944   4.868   4.509   8.516 -0.3129 -0.3127  0.1607
 6462TIP3    H140945   4.778   4.540   8.510  0.1645  1.3833  1.1788
 6462TIP3    H240946   4.920   4.578   8.475  0.5690 -1.0036  0.0935
 6463TIP3   OH240947   3.620   4.613   2.047 -0.8183  0.2301  0.2314
 6463TIP3    H140948   3.636   4.692   2.099 -0.1541 -0.7693  1.6027
 6463TIP3    H240949   3.646   4.638   1.958 -0.4026  1.4764  0.6725
 6464TIP3   OH240950   5.141   2.481   0.133 -0.2283  0.1834 -0.3480
 6464TIP3    H140951   5.065   2.498   0.076 -0.5475  1.9766  0.5576
 6464TIP3    H240952   5.103   2.457   0.217  0.2389  0.0822 -0.1638
 6465TIP3   OH240953   2.809   2.751   8.411 -0.1877  0.1863  0.0834
 6465TIP3    H140954   2.757   2.822   8.449 -2.0943 -0.8710 -0.4558
 6465TIP3    H240955   2.886   2.746   8.468 -0.2555  2.2937  0.4630
 6466TIP3   OH240956   4.797   0.932   2.305  0.2902  0.0096  0.3432
 6466TIP3    H140957   4.876   0.890   2.340 -0.0432 -0.6646  0.3051
 6466TIP3    H240958   4.734   0.929   2.378 -0.3626 -1.2724 -0.2448
 6467TIP3   OH240959   1.214   4.103   8.725 -1.2307  0.9320  0.1346
 6467TIP3    H140960   1.228   4.009   8.713 -0.4131  1.0259  0.2650
 6467TIP3    H240961   1.149   4.127   8.660  0.6014  0.7999 -1.8492
 6468TIP3   OH240962   6.358   5.832   3.063  0.5076  0.2209 -0.0961
 6468TIP3    H140963   6.392   5.905   3.115  0.1004  1.0283 -0.9218
 6468TIP3    H240964   6.375   5.755   3.116  0.9234  0.9168  0.8223
 6469TIP3   OH240965   3.307   0.921   1.149 -0.0061  0.0005 -0.0898
 6469TIP3    H140966   3.396   0.890   1.136 -0.7685 -2.4713  0.0392
 6469TIP3    H240967   3.297   0.927   1.244  0.8853  3.3260 -0.0700
 6470TIP3   OH240968   4.005   3.256   3.214 -0.4508 -0.0663 -0.2209
 6470TIP3    H140969   3.963   3.208   3.285  0.1622  0.8455  0.7914
 6470TIP3    H240970   3.933   3.286   3.158 -1.0040 -0.1136  0.4627
 6471TIP3   OH240971   5.064   1.726   7.987 -0.1747 -0.0671 -0.2009
 6471TIP3    H140972   5.159   1.717   7.989 -0.0399  1.1928  0.1588
 6471TIP3    H240973   5.040   1.742   8.079 -0.9646 -2.2103  0.0262
 6472TIP3   OH240974   0.489   4.455   2.117 -0.0010 -0.2528 -0.8836
 6472TIP3    H140975   0.463   4.416   2.201 -0.4022 -0.8586 -1.2819
 6472TIP3    H240976   0.564   4.402   2.089  0.1726 -0.0105 -0.8758
 6473TIP3   OH240977   0.856   4.099   7.262 -0.0298  0.5589  0.4775
 6473TIP3    H140978   0.801   4.137   7.194  0.3382 -1.5486 -1.0729
 6473TIP3    H240979   0.821   4.012   7.276  0.9426  0.3474  1.8069
 6474TIP3   OH240980   3.146   5.657   1.753 -0.6187  0.0235  0.3471
 6474TIP3    H140981   3.138   5.673   1.847 -2.2387 -0.6620  0.3717
 6474TIP3    H240982   3.066   5.609   1.731 -1.0165  1.5053 -1.6709
 6475TIP3   OH240983   1.925   3.866   8.099  0.1458 -0.1621 -0.3946
 6475TIP3    H140984   1.995   3.831   8.154 -1.4569 -1.8324  0.6980
 6475TIP3    H240985   1.881   3.789   8.063  0.8708  0.8428 -3.8498
 6476TIP3   OH240986   6.122   2.484   1.399  0.1702  0.2715  0.2492
 6476TIP3    H140987   6.211   2.453   1.385 -0.1980 -0.5070 -0.4211
 6476TIP3    H240988   6.128   2.538   1.478  1.3140  0.6034 -0.0485
 6477TIP3   OH240989   3.450   4.753   1.228  0.1107  0.2745  0.2448
 6477TIP3    H140990   3.430   4.838   1.267  1.3820  0.2284  1.0286
 6477TIP3    H240991   3.545   4.750   1.223  0.0485  0.4565 -3.3418
 6478TIP3   OH240992   6.179   1.548   1.593  0.8656  0.1904 -0.4873
 6478TIP3    H140993   6.114   1.538   1.523 -1.3838  5.0634  0.4670
 6478TIP3    H240994   6.261   1.564   1.548  0.6570 -2.0248 -1.8014
 6479TIP3   OH240995   6.517   5.009   0.867  0.5034 -0.1592  0.3251
 6479TIP3    H140996   6.577   4.973   0.932  1.3642  1.0276  0.2244
 6479TIP3    H240997   6.480   4.932   0.822  1.6152 -0.9202  0.6811
 6480TIP3   OH240998   5.744   0.325   3.095  0.2740  0.7118 -0.3011
 6480TIP3    H140999   5.826   0.299   3.137 -0.3124  0.6948  0.8662
 6480TIP3    H241000   5.676   0.280   3.144 -0.4757  1.1148 -0.9445
 6481TIP3   OH241001   5.338   4.465   8.204 -0.1927 -0.8411  0.2438
 6481TIP3    H141002   5.432   4.485   8.204 -0.4241  0.3276  0.4515
 6481TIP3    H241003   5.326   4.403   8.132  0.8186 -1.4354  0.5698
 6482TIP3   OH241004   3.848   4.049   3.082  0.2695  0.0314 -0.0376
 6482TIP3    H141005   3.828   3.997   3.004 -0.1180  1.4858 -0.9409
 6482TIP3    H241006   3.781   4.023   3.146 -0.9308  0.5924 -1.0295
 6483TIP3   OH241007   3.422   4.842   8.510  0.0941  0.3082  0.2879
 6483TIP3    H141008   3.492   4.896   8.546 -0.1356  0.6866  0.1677
 6483TIP3    H241009   3.342   4.876   8.550 -0.0668  0.1422  0.1109
 6484TIP3   OH241010   5.969   1.069   0.413 -0.0920 -0.2071  0.1817
 6484TIP3    H141011   5.985   1.150   0.462 -0.4885  0.0577 -0.1196
 6484TIP3    H241012   6.048   1.016   0.427 -0.5269 -0.4847  1.7841
 6485TIP3   OH241013   1.065   3.516   0.577  0.3301  0.0786 -0.1960
 6485TIP3    H141014   1.063   3.451   0.506  1.1840  1.5702 -1.6406
 6485TIP3    H241015   0.992   3.491   0.634  1.3961 -2.9323  0.0565
 6486TIP3   OH241016   6.129   3.413   7.404  0.1020  0.1694  0.3774
 6486TIP3    H141017   6.130   3.343   7.339  0.0409  1.8033 -1.4661
 6486TIP3    H241018   6.221   3.428   7.424  0.1703  0.2829 -0.0260
 6487TIP3   OH241019   5.136   0.081   2.834 -0.1100 -0.4347  0.3114
 6487TIP3    H141020   5.080   0.137   2.781 -0.3421 -1.0025 -0.0556
 6487TIP3    H241021   5.104   0.092   2.923  0.2371  0.4742  0.3379
 6488TIP3   OH241022   0.179   1.766   1.653  0.3512 -0.2278  0.0842
 6488TIP3    H141023   0.252   1.819   1.622 -0.0941  1.7692  2.2043
 6488TIP3    H241024   0.103   1.800   1.606  0.1857  0.5853  0.8995
 6489TIP3   OH241025   5.270   4.601   7.524 -1.0018  0.1532  0.1083
 6489TIP3    H141026   5.266   4.686   7.480  0.1865 -0.6861 -1.7357
 6489TIP3    H241027   5.352   4.562   7.494 -1.2262 -1.4067  1.3761
 6490TIP3   OH241028   2.095   2.768   2.940 -0.0577  0.3287 -0.3905
 6490TIP3    H141029   2.107   2.687   2.891  0.2021  0.2646 -0.2295
 6490TIP3    H241030   2.146   2.834   2.892  0.9513  0.0650  0.2726
 6491TIP3   OH241031   5.443   1.254   3.149 -0.4461  0.4163 -0.1499
 6491TIP3    H141032   5.523   1.278   3.197 -0.6109  0.7848 -0.0597
 6491TIP3    H241033   5.378   1.237   3.217 -0.5634  0.5331 -0.2324
 6492TIP3   OH241034   1.729   6.405   0.872  0.5285 -0.0738  0.0580
 6492TIP3    H141035   1.725   6.313   0.846 -0.4588 -0.6554  2.0530
 6492TIP3    H241036   1.755   6.402   0.964 -1.7445  1.4831  0.8307
 6493TIP3   OH241037   0.921   0.641   0.262  0.5051  0.5579  0.2293
 6493TIP3    H141038   0.993   0.606   0.315  0.3235  0.9824  0.7625
 6493TIP3    H241039   0.863   0.683   0.325  0.3090  1.1136 -0.3136
 6494TIP3   OH241040   6.434   1.978   2.791 -0.1999 -0.5001  0.1345
 6494TIP3    H141041   6.519   1.998   2.830 -0.4414 -1.7169  1.3539
 6494TIP3    H241042   6.441   1.887   2.763 -0.4907 -0.0472 -1.4968
 6495TIP3   OH241043   3.461   4.521   2.877  0.2209 -0.5711  0.3183
 6495TIP3    H141044   3.526   4.467   2.921 -0.2187 -0.8761  0.6060
 6495TIP3    H241045   3.493   4.611   2.887  1.2730 -0.8081 -0.6849
 6496TIP3   OH241046   5.437   3.204   3.592  0.0957 -0.0934  0.1649
 6496TIP3    H141047   5.400   3.119   3.616  1.7639 -1.3091 -1.2898
 6496TIP3    H241048   5.532   3.191   3.601  0.5752  0.6511 -2.8241
 6497TIP3   OH241049   3.793   5.583   2.483  0.5031  0.2710 -0.1487
 6497TIP3    H141050   3.742   5.502   2.486  0.5596  0.1454 -1.6753
 6497TIP3    H241051   3.753   5.633   2.411  0.5958  1.5139  0.6395
 6498TIP3   OH241052   5.070   0.299   0.145  0.1893 -0.0753 -0.0891
 6498TIP3    H141053   5.055   0.357   0.220  0.0823 -1.2637  0.8537
 6498TIP3    H241054   4.996   0.238   0.147 -0.3899  0.5278 -1.8400
 6499TIP3   OH241055   4.657   2.243   3.084 -0.3518  0.7599  0.0648
 6499TIP3    H141056   4.588   2.207   3.139 -1.2076  2.1310 -0.0442
 6499TIP3    H241057   4.720   2.281   3.146  0.6352 -0.9995  0.1836
 6500TIP3   OH241058   3.418   1.905   0.319  0.4962 -0.1959 -0.7825
 6500TIP3    H141059   3.505   1.928   0.285  0.3483  0.5172 -0.7044
 6500TIP3    H241060   3.379   1.989   0.343  0.0008 -0.5607 -0.2815
 6501TIP3   OH241061   0.122   1.990   1.350  0.0175 -0.4291 -0.7262
 6501TIP3    H141062   0.031   1.987   1.323 -0.5695 -1.2133  1.1794
 6501TIP3    H241063   0.171   1.974   1.269 -1.4439  1.0416 -1.9789
 6502TIP3   OH241064   2.443   4.239   2.123 -0.0004 -0.2679 -0.0997
 6502TIP3    H141065   2.465   4.332   2.119  0.7664 -0.2176  2.9430
 6502TIP3    H241066   2.418   4.216   2.033  1.9993  2.3095 -1.4417
 6503TIP3   OH241067   5.310   6.320   8.747  0.5445 -0.0486 -0.0466
 6503TIP3    H141068   5.295   6.225   8.750  0.1103  0.0015 -0.4704
 6503TIP3    H241069   5.396   6.332   8.786  1.0552 -0.7187 -0.9354
 6504TIP3   OH241070   6.591   3.940   0.787 -0.3357  0.4268  0.0566
 6504TIP3    H141071   6.502   3.930   0.819  0.1463 -0.1519  1.3024
 6504TIP3    H241072   6.587   4.013   0.726 -2.1983 -1.2759 -2.0774
 6505TIP3   OH241073   3.800   2.683   1.897  0.3127 -0.0487  0.7222
 6505TIP3    H141074   3.803   2.694   1.802 -0.3879 -1.6081  0.4982
 6505TIP3    H241075   3.714   2.717   1.922  0.1517 -0.4340  0.6883
 6506TIP3   OH241076   4.211   4.633   1.326  0.3045 -0.0227 -0.0511
 6506TIP3    H141077   4.263   4.600   1.399 -0.3724  0.1502  0.5236
 6506TIP3    H241078   4.253   4.596   1.248  0.0972 -1.5450  0.5151
 6507TIP3   OH241079   0.520   1.803   7.734 -0.1458  0.6017  0.2500
 6507TIP3    H141080   0.496   1.828   7.824  0.3141  1.2533  0.2007
 6507TIP3    H241081   0.609   1.836   7.723 -0.3775  0.9749 -0.6112
 6508TIP3   OH241082   2.341   0.001   0.698 -0.1458 -0.1963 -0.2001
 6508TIP3    H141083   2.426  -0.043   0.706 -0.1406 -0.1266  0.1342
 6508TIP3    H241084   2.348   0.053   0.618  0.1417 -0.1580 -0.1498
 6509TIP3   OH241085   2.823   5.237   1.619  0.1704 -0.0204  0.7749
 6509TIP3    H141086   2.797   5.179   1.548 -2.3294  1.2216  0.5622
 6509TIP3    H241087   2.833   5.179   1.694  1.6796 -1.1950 -0.2691
 6510TIP3   OH241088   2.178   4.840   8.144  0.3312 -0.3730  0.2605
 6510TIP3    H141089   2.175   4.884   8.228  1.2035  1.2630 -0.5024
 6510TIP3    H241090   2.256   4.876   8.101  0.2530 -1.6067 -1.0089
 6511TIP3   OH241091   2.131   5.898   2.129 -0.4973  0.3396 -0.2777
 6511TIP3    H141092   2.167   5.919   2.215 -2.0675  3.6505 -0.2764
 6511TIP3    H241093   2.207   5.896   2.071  0.3265  0.5326  0.7735
 6512TIP3   OH241094   5.364   0.309   8.428  0.5910  0.3994 -0.6063
 6512TIP3    H141095   5.407   0.275   8.506 -0.5957  0.4489  0.0954
 6512TIP3    H241096   5.418   0.278   8.355  0.3244 -1.8444  0.0766
 6513TIP3   OH241097   2.738   4.614   2.855  0.2199 -0.1157 -0.1393
 6513TIP3    H141098   2.742   4.674   2.929  0.9811  1.0007 -1.0495
 6513TIP3    H241099   2.785   4.536   2.884  1.9018  0.9148  0.0436
 6514TIP3   OH241100   1.903   0.072   2.078 -0.0214  0.2598  0.1531
 6514TIP3    H141101   1.949  -0.004   2.114 -1.3509  0.3804  2.2802
 6514TIP3    H241102   1.821   0.036   2.044 -0.7172  0.7050  1.2934
 6515TIP3   OH241103   5.414   6.691   7.876  0.0813  0.1320  0.0233
 6515TIP3    H141104   5.431   6.778   7.912  0.6011  0.9816 -2.0710
 6515TIP3    H241105   5.488   6.637   7.905 -0.0604  0.4804  1.0490
 6516TIP3   OH241106   4.074   2.021   0.727 -0.0011  0.3645  0.1728
 6516TIP3    H141107   4.036   2.100   0.764  1.2915  0.7070  0.8609
 6516TIP3    H241108   4.019   1.949   0.759 -1.1667  0.9600 -0.4385
 6517TIP3   OH241109   0.839   4.139   0.290  0.1492 -0.1689 -0.3337
 6517TIP3    H141110   0.800   4.205   0.347 -1.2598  0.5171 -1.9971
 6517TIP3    H241111   0.780   4.063   0.298  0.4022 -0.3616 -0.2808
 6518TIP3   OH241112   3.922   6.254   0.576 -0.1896 -0.0756 -0.1911
 6518TIP3    H141113   3.949   6.341   0.545  0.8688 -0.4825 -0.4446
 6518TIP3    H241114   3.840   6.270   0.623 -1.3654  0.7065 -2.3667
 6519TIP3   OH241115   2.802   4.677   7.436  0.0819  0.4055  0.7468
 6519TIP3    H141116   2.753   4.597   7.418 -0.4742  1.0774 -0.8692
 6519TIP3    H241117   2.735   4.745   7.443  0.6537  1.0177  0.3995
 6520TIP3   OH241118   3.299   0.491   0.452  0.3667 -0.8022 -0.5224
 6520TIP3    H141119   3.276   0.525   0.538  1.2882 -0.0241 -0.5637
 6520TIP3    H241120   3.215   0.463   0.414 -0.3273  0.6483 -0.1398
 6521TIP3   OH241121   4.079   1.961   7.953  0.0777 -0.9181  0.3421
 6521TIP3    H141122   4.102   1.958   7.860 -0.9711  1.2239 -0.0466
 6521TIP3    H241123   4.001   1.907   7.960 -1.4222  1.0137 -0.6070
 6522TIP3   OH241124   2.251   6.105   8.256 -0.2196 -0.3138  0.4925
 6522TIP3    H141125   2.255   6.025   8.203 -0.9962  0.2171 -0.4063
 6522TIP3    H241126   2.306   6.168   8.208 -0.6996  0.0868  0.4559
 6523TIP3   OH241127   1.195   1.679   8.691 -0.0197 -0.5517 -0.4382
 6523TIP3    H141128   1.235   1.596   8.669 -0.5025 -1.1822  0.9476
 6523TIP3    H241129   1.169   1.717   8.607  0.7434 -1.5051 -1.1199
 6524TIP3   OH241130   3.888   4.820   8.419 -0.0615  0.2450  0.3128
 6524TIP3    H141131   3.869   4.902   8.374 -0.1227 -0.3452 -0.7580
 6524TIP3    H241132   3.956   4.778   8.366  1.2267  0.3769  1.7903
 6525TIP3   OH241133   1.470   6.106   0.022  0.2148 -0.4831 -0.5751
 6525TIP3    H141134   1.522   6.176   0.061  1.5383 -1.3708 -0.6556
 6525TIP3    H241135   1.422   6.067   0.095  0.3660 -0.2220 -0.3361
 6526TIP3   OH241136   0.009   4.810   0.522  0.1214  0.4755 -0.4526
 6526TIP3    H141137  -0.011   4.745   0.454  1.5417 -0.0034 -0.4430
 6526TIP3    H241138  -0.077   4.842   0.550 -0.6717 -1.8028 -0.0488
 6527TIP3   OH241139   0.147   0.623   0.276 -0.4245  0.1682 -0.2384
 6527TIP3    H141140   0.098   0.559   0.224  1.0116  0.4698 -2.0250
 6527TIP3    H241141   0.165   0.695   0.216  1.6324  0.3573  0.5244
 6528TIP3   OH241142   4.751   6.593   8.798  0.3201  0.2103  0.1492
 6528TIP3    H141143   4.809   6.660   8.762 -0.3948  1.2911  0.9481
 6528TIP3    H241144   4.664   6.633   8.797 -0.0110 -0.4297  1.3039
 6529TIP3   OH241145   4.438   6.084   0.257 -0.0410 -0.3690  0.3326
 6529TIP3    H141146   4.390   6.001   0.259  0.4732 -0.6741  0.1160
 6529TIP3    H241147   4.396   6.137   0.325 -0.3271 -0.8328  0.5233
 6530TIP3   OH241148   2.054   6.328   0.897  0.4281  0.0757 -0.3210
 6530TIP3    H141149   2.015   6.246   0.866 -0.0973 -0.0428  0.6215
 6530TIP3    H241150   2.132   6.302   0.945 -0.8221 -0.0801  1.7467
 6531TIP3   OH241151   5.271   1.803   1.400 -0.0862  0.6695 -0.8400
 6531TIP3    H141152   5.340   1.856   1.360  0.9033 -1.3671 -2.0558
 6531TIP3    H241153   5.212   1.866   1.441  1.3943  2.6130 -1.5391
 6532TIP3   OH241154   4.914   1.905   0.877  0.8465  0.2741  0.8435
 6532TIP3    H141155   4.911   1.969   0.948  2.0468  1.6640 -0.2895
 6532TIP3    H241156   4.823   1.878   0.864  0.6065  0.0357  2.8309
 6533TIP3   OH241157   5.202   4.875   7.461  0.7554  0.4833 -0.3865
 6533TIP3    H141158   5.213   4.924   7.380 -0.3908  1.5425  0.0534
 6533TIP3    H241159   5.227   4.937   7.530 -1.0060  0.6063  0.2006
 6534TIP3   OH241160   4.899   5.804   2.889  1.0152 -0.6252 -0.2290
 6534TIP3    H141161   4.976   5.753   2.866  1.1090  0.1379 -1.7557
 6534TIP3    H241162   4.833   5.739   2.912  1.8866 -1.3059  0.3906
 6535TIP3   OH241163   6.000   4.190   1.664 -0.4386  0.0519 -0.3769
 6535TIP3    H141164   5.926   4.142   1.703 -0.3068  0.1273 -0.0267
 6535TIP3    H241165   5.959   4.250   1.602 -0.8913  1.6486  1.3839
 6536TIP3   OH241166   3.358   0.532   8.863 -0.3826  0.2469  0.2824
 6536TIP3    H141167   3.362   0.481   8.944 -1.8963  0.5279  0.5559
 6536TIP3    H241168   3.310   0.611   8.887  0.0467  0.8082 -0.6592
 6537TIP3   OH241169   1.188   3.020   0.252  0.6628  0.1104 -0.2978
 6537TIP3    H141170   1.232   3.099   0.286  0.7837 -0.4056  0.7861
 6537TIP3    H241171   1.177   2.964   0.329 -1.1699 -0.1316 -0.6985
 6538TIP3   OH241172   0.506   5.564   1.488  0.0676 -0.1821  0.0490
 6538TIP3    H141173   0.540   5.624   1.555 -0.0004 -0.8300  0.6802
 6538TIP3    H241174   0.496   5.618   1.410 -0.5858  0.7736  0.7758
 6539TIP3   OH241175   4.800   5.386   1.845  0.4567  0.1524 -0.0353
 6539TIP3    H141176   4.849   5.400   1.926  1.3443  3.6591 -1.0183
 6539TIP3    H241177   4.867   5.382   1.777 -0.3916  1.2873 -0.9902
 6540TIP3   OH241178   4.483   4.608   2.367 -1.0926 -0.4434 -0.2974
 6540TIP3    H141179   4.570   4.623   2.331 -1.1107 -1.6857 -0.9151
 6540TIP3    H241180   4.438   4.691   2.357 -0.2472 -0.0286 -0.7301
 6541TIP3   OH241181   6.155   2.391   1.819 -0.4395  0.3417  0.6734
 6541TIP3    H141182   6.216   2.461   1.798  0.7005 -0.0120  2.5440
 6541TIP3    H241183   6.209   2.312   1.826 -1.7162 -0.8184 -1.5282
 6542TIP3   OH241184   5.514   4.804   1.759 -0.1391 -0.1904  0.2420
 6542TIP3    H141185   5.500   4.899   1.757  0.5298 -0.0140 -3.3340
 6542TIP3    H241186   5.586   4.792   1.821 -0.7860  1.5182  1.3981
 6543TIP3   OH241187   0.299   0.420   2.505  0.3756  0.0712  1.0977
 6543TIP3    H141188   0.212   0.379   2.511 -0.0415  0.5363 -0.9674
 6543TIP3    H241189   0.350   0.377   2.574 -0.3063 -3.2806 -0.2566
 6544TIP3   OH241190   0.539   5.519   3.152 -0.5012 -0.7464 -0.0197
 6544TIP3    H141191   0.479   5.593   3.150  0.5356  0.0903 -1.1069
 6544TIP3    H241192   0.607   5.541   3.089  1.9851 -0.7994  2.4455
 6545TIP3   OH241193   2.667   6.697   0.089 -0.2671 -0.4874  0.4156
 6545TIP3    H141194   2.748   6.694   0.039 -0.8168 -1.5251 -0.4515
 6545TIP3    H241195   2.682   6.640   0.164  0.5040  0.9495  1.4032
 6546TIP3   OH241196   0.196   3.717   7.399  0.0914 -0.1044  0.1107
 6546TIP3    H141197   0.171   3.791   7.343 -0.8694  0.5722  1.3755
 6546TIP3    H241198   0.290   3.706   7.384 -0.1249  0.0385 -1.6187
 6547TIP3   OH241199   4.080   5.616   7.970 -0.4052 -0.4853 -0.1747
 6547TIP3    H141200   4.170   5.586   7.966 -0.2752 -0.2974  1.0017
 6547TIP3    H241201   4.041   5.587   7.888  1.1239  0.7536 -1.4091
 6548TIP3   OH241202   4.443   0.954   3.191  0.2655 -0.5838 -0.2933
 6548TIP3    H141203   4.520   0.956   3.247 -0.1583 -0.7797  0.3110
 6548TIP3    H241204   4.420   0.861   3.184 -0.2667 -0.4842  0.0351
 6549TIP3   OH241205   0.045   5.500   2.561  0.0748 -0.5394  0.4553
 6549TIP3    H141206   0.025   5.502   2.655  0.5213 -0.2712  0.5453
 6549TIP3    H241207   0.133   5.536   2.554 -0.2435  0.1362 -0.1446
 6550TIP3   OH241208   2.979   4.885   1.594  0.5312 -0.0911 -0.2675
 6550TIP3    H141209   3.055   4.859   1.647  0.5221 -1.9939 -1.1050
 6550TIP3    H241210   2.941   4.959   1.642  3.4517  1.6181 -0.3285
 6551TIP3   OH241211   4.425   2.096   2.116 -0.6028 -0.1992 -0.4564
 6551TIP3    H141212   4.464   2.034   2.177 -1.0093  0.5493  0.5978
 6551TIP3    H241213   4.487   2.101   2.044  0.0245 -0.8931  0.0194
 6552TIP3   OH241214   5.204   5.229   0.416 -0.3346 -0.1626  0.5989
 6552TIP3    H141215   5.258   5.166   0.369 -1.0279 -0.3550  0.0372
 6552TIP3    H241216   5.265   5.276   0.473  0.5176  0.0458 -0.4573
 6553TIP3   OH241217   2.300   5.229   8.297 -0.3277 -0.8166 -0.1417
 6553TIP3    H141218   2.342   5.213   8.382  1.2124 -1.5971 -1.0183
 6553TIP3    H241219   2.331   5.315   8.271 -0.1684 -0.9161 -0.2784
 6554TIP3   OH241220   6.655   4.732   0.982  0.4661 -0.6908  0.4961
 6554TIP3    H141221   6.636   4.815   1.026  0.7860  0.2371 -1.0128
 6554TIP3    H241222   6.578   4.678   0.997  0.0821  0.0324  1.1734
 6555TIP3   OH241223   0.260   1.369   2.000 -0.4932  0.4645  0.4226
 6555TIP3    H141224   0.233   1.423   1.925  0.4813 -0.6010 -0.7213
 6555TIP3    H241225   0.291   1.287   1.962  2.0975  0.6840  1.8136
 6556TIP3   OH241226   0.268   4.160   8.771 -0.3350  0.1426 -0.0916
 6556TIP3    H141227   0.221   4.147   8.854 -2.1935 -1.9931 -1.3790
 6556TIP3    H241228   0.200   4.183   8.708  0.4935 -1.5812 -1.7253
 6557TIP3   OH241229   6.694   3.980   1.849  0.1915  0.0361 -0.0577
 6557TIP3    H141230   6.619   3.921   1.858 -1.1102  1.7866  1.3187
 6557TIP3    H241231   6.656   4.062   1.820  1.4283  1.2060  1.4580
 6558TIP3   OH241232   2.937   4.189   1.878 -0.4592  0.5195  0.4686
 6558TIP3    H141233   2.970   4.269   1.918  3.4546  1.2567 -3.4407
 6558TIP3    H241234   2.980   4.118   1.927  0.7483  1.1480  0.3458
 6559TIP3   OH241235   3.432   3.850   8.553  0.1642 -0.1156 -0.2229
 6559TIP3    H141236   3.495   3.914   8.584 -1.3393  0.5395  1.6695
 6559TIP3    H241237   3.445   3.847   8.458  2.6123  0.3809  0.0427
 6560TIP3   OH241238   0.147   4.901   0.053 -0.2339 -0.2545 -0.1631
 6560TIP3    H141239   0.222   4.881   0.109 -0.1648 -1.3717 -0.6412
 6560TIP3    H241240   0.160   4.849  -0.026 -1.3862 -0.2664 -0.3697
 6561TIP3   OH241241   0.107   5.985   7.758  0.0407 -0.6296 -0.2607
 6561TIP3    H141242   0.099   6.008   7.666 -1.6985 -1.2984 -0.3177
 6561TIP3    H241243   0.037   5.922   7.773  0.4016 -0.6691  1.4804
 6562TIP3   OH241244   1.221   1.959   8.027  0.1674 -0.2669  0.2443
 6562TIP3    H141245   1.297   1.947   8.084 -0.4563 -0.0450  1.1361
 6562TIP3    H241246   1.209   2.053   8.021 -2.0332 -0.2328  2.9016
 6563TIP3   OH241247   5.205   4.849   7.087 -0.1920  0.0661 -0.3133
 6563TIP3    H141248   5.221   4.924   7.144  1.8617 -0.5468 -0.0038
 6563TIP3    H241249   5.286   4.840   7.037 -0.3330 -2.0515 -0.2165
 6564TIP3   OH241250   1.676   4.387   7.947  0.1501  0.2668  0.0860
 6564TIP3    H141251   1.727   4.406   7.868 -0.8078 -1.8183 -1.1362
 6564TIP3    H241252   1.590   4.426   7.929  0.1202  0.3352  0.3804
 6565TIP3   OH241253   0.816   1.223   0.676 -0.3714  0.4088  0.2922
 6565TIP3    H141254   0.818   1.139   0.723  0.8391  1.1632  1.6667
 6565TIP3    H241255   0.884   1.215   0.610 -1.1030 -0.1305 -0.4125
 6566TIP3   OH241256   0.112   3.992   2.471  0.0758  0.1086  0.0424
 6566TIP3    H141257   0.189   4.033   2.510  1.3034 -1.1983 -0.8827
 6566TIP3    H241258   0.140   3.969   2.383 -0.5270 -2.6014  0.4780
 6567TIP3   OH241259   1.978   0.982   8.141 -0.0894 -0.0630  0.0492
 6567TIP3    H141260   1.979   0.934   8.059 -0.9699 -0.8531  0.4782
 6567TIP3    H241261   1.958   1.072   8.116 -2.4418 -0.6513 -0.4763
 6568TIP3   OH241262   6.322   3.867   0.838 -0.0333 -0.6040 -0.5069
 6568TIP3    H141263   6.303   3.776   0.860  0.1891 -0.6833 -0.6374
 6568TIP3    H241264   6.279   3.918   0.906  0.6639 -0.8521  0.1334
 6569TIP3   OH241265   4.464   5.112   2.321  0.1702 -0.0904  0.6553
 6569TIP3    H141266   4.488   5.106   2.229  0.6098 -2.2833  0.8735
 6569TIP3    H241267   4.480   5.204   2.344 -0.4849  0.6473 -1.5592
 6570TIP3   OH241268   2.271   1.845   1.845 -0.2493  0.0793 -0.0703
 6570TIP3    H141269   2.202   1.890   1.796  0.5922  1.6439  0.1114
 6570TIP3    H241270   2.270   1.756   1.812 -1.6500  0.3528 -0.8256
 6571TIP3   OH241271   5.944   6.567   2.036 -0.0078 -0.1674  0.0020
 6571TIP3    H141272   5.972   6.640   1.980  2.9512 -0.6030  0.7149
 6571TIP3    H241273   5.897   6.609   2.108  2.0980  1.2254  0.6842
 6572TIP3   OH241274   3.474   4.868   1.993  0.1190  0.1639 -0.0640
 6572TIP3    H141275   3.505   4.809   1.924 -0.7506  1.2867 -1.4634
 6572TIP3    H241276   3.410   4.816   2.042  1.6470 -1.0578  0.7446
 6573TIP3   OH241277   1.634   6.063   1.630  0.0403  0.0757 -0.0290
 6573TIP3    H141278   1.569   6.120   1.590 -1.0882 -0.2783  1.2280
 6573TIP3    H241279   1.634   5.984   1.575  1.6211  1.2169 -1.7794
 6574TIP3   OH241280   3.965   6.131   1.702 -0.1689 -0.6021  0.4747
 6574TIP3    H141281   3.909   6.201   1.669 -0.7725 -1.8226 -1.2450
 6574TIP3    H241282   3.930   6.110   1.788 -1.3546 -0.2325  0.0978
 6575TIP3   OH241283   3.719   4.271   8.384  0.0143 -0.1781  0.4735
 6575TIP3    H141284   3.711   4.207   8.313  1.6677 -0.4308  0.4875
 6575TIP3    H241285   3.796   4.323   8.362 -0.8938  1.4024  0.8194
 6576TIP3   OH241286   1.206   2.406   0.063  0.1066 -0.1561  0.0718
 6576TIP3    H141287   1.297   2.396   0.089  0.6696  1.3954 -1.1915
 6576TIP3    H241288   1.198   2.355  -0.018 -0.9539 -2.7321  1.6741
 6577TIP3   OH241289   2.835   5.095   7.893  0.5192  0.3110 -0.3060
 6577TIP3    H141290   2.928   5.075   7.883  0.8760  0.7573  1.7261
 6577TIP3    H241291   2.795   5.067   7.810  2.5509  0.7694 -1.5130
 6578TIP3   OH241292   2.668   1.907   1.403  0.6530 -0.3679 -0.4154
 6578TIP3    H141293   2.751   1.945   1.373  0.3330  0.3690 -0.3746
 6578TIP3    H241294   2.694   1.828   1.451  1.2000 -1.5812 -2.5446
 6579TIP3   OH241295   6.184   3.007   1.742  0.2207  0.1158 -0.1500
 6579TIP3    H141296   6.180   3.101   1.722  0.6245  0.1982  0.1399
 6579TIP3    H241297   6.093   2.979   1.741 -0.1268  0.9669  1.9055
 6580TIP3   OH241298   5.507   5.969   0.100 -0.0846  0.3169 -0.5050
 6580TIP3    H141299   5.467   5.979   0.186  0.4334 -1.0013 -0.0914
 6580TIP3    H241300   5.552   5.884   0.103  0.6241  0.6071 -1.7971
 6581TIP3   OH241301   5.742   1.004   0.786 -0.3831  0.0151 -0.5432
 6581TIP3    H141302   5.697   0.935   0.835  0.6639 -0.8556 -0.7689
 6581TIP3    H241303   5.832   1.003   0.820  0.0143  0.3050 -1.5512
 6582TIP3   OH241304   4.042   5.755   2.434 -0.4009 -0.1908  0.6807
 6582TIP3    H141305   3.973   5.691   2.414 -0.6395  0.6189 -1.3185
 6582TIP3    H241306   4.123   5.712   2.408 -0.4016 -0.2248  0.7324
 6583TIP3   OH241307   1.037   1.399   0.793 -0.4671 -0.0046  0.0494
 6583TIP3    H141308   1.047   1.449   0.712 -0.4488  1.8256  1.1307
 6583TIP3    H241309   0.957   1.347   0.779 -0.2224 -0.0735 -1.2817
 6584TIP3   OH241310   6.635   0.497   0.170 -0.1869 -0.1566  0.2695
 6584TIP3    H141311   6.563   0.522   0.112 -0.8252  1.1735  1.5816
 6584TIP3    H241312   6.599   0.502   0.258  1.0308 -1.2029  0.8733
 6585TIP3   OH241313   3.306   2.825   0.073 -0.4848 -0.0913  0.5047
 6585TIP3    H141314   3.364   2.748   0.070 -1.5907 -0.9142 -0.9621
 6585TIP3    H241315   3.335   2.873   0.150  1.1951 -1.2269  0.6415
 6586TIP3   OH241316   4.243   5.604   0.442 -0.5248 -0.1979  0.7208
 6586TIP3    H141317   4.292   5.614   0.524 -0.0798 -0.2980  0.4705
 6586TIP3    H241318   4.225   5.693   0.413  0.1777 -0.1455  0.4223
 6587TIP3   OH241319   0.881   0.228   8.477  0.0253 -0.1901  0.2546
 6587TIP3    H141320   0.897   0.133   8.473  3.1991  0.2724 -0.5087
 6587TIP3    H241321   0.825   0.239   8.554  0.8578 -2.5600  1.3097
 6588TIP3   OH241322   5.341   3.627   3.398 -0.6299 -0.1634 -0.1889
 6588TIP3    H141323   5.390   3.675   3.331  2.1108 -0.7914  1.1890
 6588TIP3    H241324   5.333   3.689   3.471  0.5512 -0.8656  0.5820
 6589TIP3   OH241325   3.761   4.835   1.559  0.1388 -0.2763 -0.1169
 6589TIP3    H141326   3.818   4.906   1.589  0.3982 -1.2761  1.9070
 6589TIP3    H241327   3.799   4.808   1.475 -0.1422  2.1181 -1.1088
 6590TIP3   OH241328   1.914   3.110   0.502  0.4070 -0.0711 -0.0011
 6590TIP3    H141329   1.909   3.184   0.562  2.1453 -0.9922  1.3979
 6590TIP3    H241330   1.988   3.131   0.444  2.7257 -1.7743  2.1317
 6591TIP3   OH241331   6.529   2.079   8.483 -0.1944  0.7744 -0.3323
 6591TIP3    H141332   6.488   2.071   8.568 -0.7867 -1.5014 -0.7723
 6591TIP3    H241333   6.460   2.112   8.425 -0.1157  1.2082 -0.1851
 6592TIP3   OH241334   3.735   1.303   8.178  0.1301  0.2237 -0.0381
 6592TIP3    H141335   3.766   1.246   8.248  0.0308  0.4344  0.1788
 6592TIP3    H241336   3.727   1.246   8.102  0.0068 -0.0581  0.1843
 6593TIP3   OH241337   3.868   0.885   1.941  0.0464  0.8860  0.1219
 6593TIP3    H141338   3.913   0.801   1.951 -1.8506 -0.2686 -0.5509
 6593TIP3    H241339   3.938   0.947   1.919  1.5274 -0.4360  0.8921
 6594TIP3   OH241340   2.856   4.485   0.567 -0.1611 -0.3281 -0.3640
 6594TIP3    H141341   2.887   4.566   0.526  0.8340  0.8598  2.4895
 6594TIP3    H241342   2.785   4.512   0.625 -0.3319 -1.6084  0.0737
 6595TIP3   OH241343   2.916   1.172   2.398 -0.0388  0.1719  0.0417
 6595TIP3    H141344   2.971   1.230   2.452 -0.0927  1.1918 -0.9604
 6595TIP3    H241345   2.898   1.097   2.455  2.1743 -0.1001  0.5108
 6596TIP3   OH241346   5.227   2.787   1.934  0.3730 -0.2786 -0.1641
 6596TIP3    H141347   5.208   2.845   1.860 -1.3049 -0.4012  0.1368
 6596TIP3    H241348   5.251   2.703   1.893  0.7372  0.0240 -0.5789
 6597TIP3   OH241349   5.900   2.283   1.391 -0.8464 -0.7943  0.3294
 6597TIP3    H141350   5.903   2.262   1.485 -2.7722  2.8282  1.4305
 6597TIP3    H241351   5.983   2.326   1.373 -1.3004  0.4414  1.0389
 6598TIP3   OH241352   1.529   0.466   3.073 -0.3752 -0.0816 -0.1380
 6598TIP3    H141353   1.516   0.519   3.152  2.0977  1.8665 -0.8952
 6598TIP3    H241354   1.578   0.390   3.103 -2.7104 -1.3018  0.7427
 6599TIP3   OH241355   3.288   4.043   0.459  0.0226  0.3285 -0.1447
 6599TIP3    H141356   3.326   3.961   0.430  0.6344 -0.1743  1.9069
 6599TIP3    H241357   3.345   4.111   0.423 -0.0463 -0.1706 -1.2153
 6600TIP3   OH241358   0.561   0.015   1.122 -0.7092 -0.4928  0.4612
 6600TIP3    H141359   0.580  -0.041   1.047 -1.4998 -1.8785  1.2340
 6600TIP3    H241360   0.473   0.049   1.106 -1.3386 -1.6812  1.2285
 6601TIP3   OH241361   2.180   1.557   0.974 -0.0299  0.3337  0.2169
 6601TIP3    H141362   2.211   1.633   1.025 -0.7405 -0.8115  2.4948
 6601TIP3    H241363   2.257   1.500   0.968  0.4031  1.0278 -1.1725
 6602TIP3   OH241364   4.498   4.134   1.190 -0.3647  0.1780  0.7980
 6602TIP3    H141365   4.473   4.165   1.277 -0.1275 -0.2287  1.0163
 6602TIP3    H241366   4.420   4.091   1.156  0.4199 -2.5983  2.1631
 6603TIP3   OH241367   6.145   5.235   3.333 -0.4193 -0.1051 -0.3216
 6603TIP3    H141368   6.073   5.251   3.394  1.1861  1.5101  1.3105
 6603TIP3    H241369   6.122   5.287   3.256 -0.3690  1.6439  0.7708
 6604TIP3   OH241370   3.240   2.121   0.432 -0.0039 -0.7127 -0.0762
 6604TIP3    H141371   3.158   2.169   0.421  0.4674 -0.1207 -1.1746
 6604TIP3    H241372   3.247   2.106   0.526 -0.8346  0.1921  0.1451
 6605TIP3   OH241373   4.132   0.592   7.962 -0.6100  0.3946  0.0820
 6605TIP3    H141374   4.205   0.647   7.991 -0.1572 -0.0942 -0.1038
 6605TIP3    H241375   4.094   0.558   8.042  0.0643 -0.2259  0.1500
 6606TIP3   OH241376   4.774   0.312   1.024 -0.3430 -0.0026  0.0843
 6606TIP3    H141377   4.713   0.269   0.963  0.7188 -1.9148  0.2979
 6606TIP3    H241378   4.718   0.369   1.076 -2.0017 -1.6273  0.2276
 6607TIP3   OH241379   6.081   5.996   0.605  0.2788  0.4089  0.1567
 6607TIP3    H141380   6.098   5.996   0.699 -3.1039 -0.0680  0.8974
 6607TIP3    H241381   6.145   6.059   0.569  2.3390 -0.1615  2.5514
 6608TIP3   OH241382   1.135   5.357   1.308 -0.0344 -0.3428  0.2870
 6608TIP3    H141383   1.086   5.364   1.389  1.3947  2.8700  1.0144
 6608TIP3    H241384   1.226   5.372   1.333  0.5489 -0.0306 -1.8144
 6609TIP3   OH241385   0.365   1.516   7.396 -0.0893  0.1444  0.2224
 6609TIP3    H141386   0.438   1.525   7.334 -0.6838  1.0071 -0.3715
 6609TIP3    H241387   0.351   1.604   7.430 -1.8383  0.3258 -0.8318
 6610TIP3   OH241388   2.745   0.364   1.454 -0.0231  0.3471  0.0390
 6610TIP3    H141389   2.767   0.415   1.532 -0.5055 -1.3217  1.3256
 6610TIP3    H241390   2.821   0.307   1.441 -0.8095 -0.8654  0.5949
 6611TIP3   OH241391   3.534   3.155   0.942  0.0861 -0.3505 -0.5755
 6611TIP3    H141392   3.472   3.084   0.957 -0.1803  0.0885  0.4639
 6611TIP3    H241393   3.619   3.112   0.937  0.1727 -0.6129  1.9465
 6612TIP3   OH241394   5.129   0.622   1.625 -1.1318 -0.3030  0.0749
 6612TIP3    H141395   5.166   0.672   1.552 -0.4899 -0.0362  0.5751
 6612TIP3    H241396   5.120   0.533   1.590  0.6322 -0.5369  0.1226
 6613TIP3   OH241397   6.140   4.955   1.286  0.3713  0.3539 -0.1358
 6613TIP3    H141398   6.175   4.883   1.233 -0.3808  0.2356 -0.4943
 6613TIP3    H241399   6.056   4.975   1.246 -0.2309  0.2546  1.0174
 6614TIP3   OH241400   3.173   0.452   0.719 -0.4893 -0.1881  0.2553
 6614TIP3    H141401   3.219   0.372   0.693 -1.1251 -1.0043  1.5296
 6614TIP3    H241402   3.182   0.455   0.814 -0.5647  1.2170  0.2291
 6615TIP3   OH241403   2.758   5.953   0.807  0.3877  0.2161  0.0978
 6615TIP3    H141404   2.824   5.897   0.768  0.8279  1.5349 -1.1321
 6615TIP3    H241405   2.676   5.929   0.763 -0.0236 -1.4207  1.6246
 6616TIP3   OH241406   1.929   4.852   8.602  0.3043  0.0726 -0.2409
 6616TIP3    H141407   2.002   4.798   8.633  1.2362  1.2427 -0.2986
 6616TIP3    H241408   1.853   4.794   8.605  1.4621 -1.6133 -1.4682
 6617TIP3   OH241409   3.121   2.917   1.947 -0.2928  0.5800  0.7291
 6617TIP3    H141410   3.075   2.967   2.015  0.9280  1.0489  1.2304
 6617TIP3    H241411   3.211   2.910   1.978 -0.1151 -0.7373 -0.0112
 6618TIP3   OH241412   2.167   3.195   0.945  0.1347 -0.5822 -0.1432
 6618TIP3    H141413   2.153   3.135   0.871 -1.7211 -0.8342  0.3515
 6618TIP3    H241414   2.087   3.188   0.997  0.7847  0.7060  1.1081
 6619TIP3   OH241415   2.434   4.822   1.769  0.0850 -0.4856  0.7729
 6619TIP3    H141416   2.381   4.838   1.691  0.3434 -0.7071  0.5462
 6619TIP3    H241417   2.379   4.768   1.825  0.7200 -2.3399 -0.2725
 6620TIP3   OH241418   4.095   5.780   0.156  0.4882  0.0193  0.0190
 6620TIP3    H141419   4.054   5.818   0.078  0.3025 -0.6213 -0.2005
 6620TIP3    H241420   4.185   5.810   0.153  0.2335  0.8082  0.0874
 6621TIP3   OH241421   4.295   3.863   2.778 -0.3552  0.3027 -0.2044
 6621TIP3    H141422   4.365   3.908   2.731 -1.8771  1.5675 -1.4297
 6621TIP3    H241423   4.334   3.836   2.861  1.9407 -0.3551 -1.4320
 6622TIP3   OH241424   3.428   0.032   8.525 -0.0133  0.0802  0.4888
 6622TIP3    H141425   3.501   0.010   8.583 -1.8261  0.0864  2.9596
 6622TIP3    H241426   3.452   0.116   8.486  2.2365 -0.9715 -0.5876
 6623TIP3   OH241427   0.017   0.612   7.744  1.3243 -0.1590 -0.0778
 6623TIP3    H141428   0.018   0.600   7.649  0.4023 -2.0740  0.1108
 6623TIP3    H241429   0.069   0.539   7.778  0.5322 -0.2608  0.9420
 6624TIP3   OH241430   2.454   5.445   8.182  0.1789  0.1463  0.0915
 6624TIP3    H141431   2.378   5.446   8.125  0.5263  1.1944 -0.3984
 6624TIP3    H241432   2.503   5.524   8.157  0.8614  0.0777  1.1366
 6625TIP3   OH241433   0.262   2.287   2.762  0.6658 -0.1567  0.1303
 6625TIP3    H141434   0.176   2.330   2.760  0.8244  0.1445 -1.1982
 6625TIP3    H241435   0.257   2.227   2.836 -0.5620  0.1225  0.2982
 6626TIP3   OH241436   4.086   0.884   1.366 -0.5333  0.2666  0.4681
 6626TIP3    H141437   4.164   0.835   1.341 -1.0868 -0.4714  0.1392
 6626TIP3    H241438   4.029   0.880   1.289 -0.5552  1.5288  0.3981
 6627TIP3   OH241439   6.098   4.324   0.855  0.3558 -0.1416  0.1721
 6627TIP3    H141440   6.045   4.361   0.785 -1.3524 -1.4516  0.6789
 6627TIP3    H241441   6.121   4.236   0.824  1.3260  0.0245  0.4061
 6628TIP3   OH241442   4.362   0.136   2.365  0.2518  0.0254  1.0559
 6628TIP3    H141443   4.294   0.201   2.382  0.0901  0.6105 -1.4293
 6628TIP3    H241444   4.438   0.187   2.336 -0.1582 -0.8367 -1.8195
 6629TIP3   OH241445   2.968   0.098   0.325  0.4031 -0.5267 -0.4471
 6629TIP3    H141446   3.000   0.183   0.353  1.1601 -0.2701 -1.9910
 6629TIP3    H241447   2.900   0.076   0.389  2.1446 -0.1086  1.6861
 6630TIP3   OH241448   4.273   1.854   8.714 -0.9417  0.5342 -0.0883
 6630TIP3    H141449   4.234   1.913   8.649  0.1034  0.5518 -0.7265
 6630TIP3    H241450   4.358   1.893   8.733  0.1980 -1.2155 -1.2291
 6631TIP3   OH241451   3.482   2.786   2.848  0.7030  0.5731 -0.0866
 6631TIP3    H141452   3.450   2.856   2.905 -0.5885  0.8208 -1.0685
 6631TIP3    H241453   3.439   2.707   2.881  2.4485  0.1450  1.2535
 6632TIP3   OH241454   6.070   2.622   2.079  0.0729  0.3342 -0.1352
 6632TIP3    H141455   6.160   2.591   2.070 -0.0747  0.3440 -2.1661
 6632TIP3    H241456   6.077   2.717   2.070 -0.2149  0.2622 -1.2401
 6633TIP3   OH241457   1.941   4.831   0.008  0.2314  0.2376 -0.0169
 6633TIP3    H141458   1.959   4.770   0.079 -2.7299 -1.7794 -0.7780
 6633TIP3    H241459   1.845   4.832   0.001  0.2475  3.2367 -1.6102
 6634TIP3   OH241460   3.461   3.504   0.180  0.0436 -0.7996  0.0300
 6634TIP3    H141461   3.521   3.469   0.114  0.0925 -1.4863  0.4329
 6634TIP3    H241462   3.490   3.464   0.262 -0.4263 -0.4598  0.3642
 6635TIP3   OH241463   0.967   1.510   8.458  0.2234 -0.0961 -0.3591
 6635TIP3    H141464   0.905   1.539   8.391  0.7037 -1.8923 -1.6481
 6635TIP3    H241465   1.040   1.571   8.450  0.0935 -0.0349 -1.1912
 6636TIP3   OH241466   0.285   2.381   1.090 -0.4760  0.4562 -0.9232
 6636TIP3    H141467   0.202   2.380   1.043 -0.4963  1.2430 -0.9121
 6636TIP3    H241468   0.336   2.450   1.048  0.8151 -1.0719 -1.9852
 6637TIP3   OH241469   0.310   1.373   0.956  0.1436  0.0934 -0.2528
 6637TIP3    H141470   0.331   1.417   1.038 -0.3400 -0.3497  0.1165
 6637TIP3    H241471   0.225   1.410   0.930  0.2650  0.1877 -0.5205
 6638TIP3   OH241472   6.583   2.292   1.679 -0.0027 -0.4119  0.3275
 6638TIP3    H141473   6.523   2.222   1.703  1.0040 -1.2819  0.3488
 6638TIP3    H241474   6.550   2.323   1.594 -0.2220 -1.1735  0.1272
 6639TIP3   OH241475   3.192   1.157   8.295  0.2859 -0.6275 -0.1877
 6639TIP3    H141476   3.124   1.152   8.228  2.3843 -0.8878 -2.4665
 6639TIP3    H241477   3.243   1.234   8.272  1.5313 -1.1729  0.6341
 6640TIP3   OH241478   0.756   4.446   0.731 -0.1919  0.0078  0.3818
 6640TIP3    H141479   0.826   4.388   0.702 -0.7426 -1.1555  1.3120
 6640TIP3    H241480   0.780   4.532   0.696  2.6172  0.0264  2.0244
 6641TIP3   OH241481   2.579   4.532   3.115  0.2464 -0.9066 -0.4100
 6641TIP3    H141482   2.496   4.504   3.154  0.5124 -2.4582 -0.8777
 6641TIP3    H241483   2.577   4.628   3.120 -0.7438 -0.9776  1.2533
 6642TIP3   OH241484   6.451   4.780   0.752  0.9811  0.1212 -0.4680
 6642TIP3    H141485   6.503   4.729   0.691 -2.8516 -1.9881 -2.3622
 6642TIP3    H241486   6.427   4.719   0.822 -2.0652 -0.3399 -1.7449
 6643TIP3   OH241487   0.637   1.978   1.708 -0.3679 -0.1750  0.2200
 6643TIP3    H141488   0.689   2.019   1.777 -1.3490 -1.2528  1.6540
 6643TIP3    H241489   0.602   2.052   1.657  2.2198  0.5917 -0.6035
 6644TIP3   OH241490   4.476   5.072   0.183 -0.0551  0.0993  0.2353
 6644TIP3    H141491   4.390   5.114   0.173 -0.4214 -0.5246  0.6337
 6644TIP3    H241492   4.501   5.048   0.093  0.3387  1.4853 -0.0373
 6645TIP3   OH241493   4.922   5.260   0.275 -0.5908  0.5442  0.2044
 6645TIP3    H141494   4.921   5.239   0.369  0.0458 -0.8187 -0.0697
 6645TIP3    H241495   4.975   5.191   0.236  1.0044  2.2906 -0.8968
 6646TIP3   OH241496   4.522   1.647   7.517 -0.4208  0.1272  0.1310
 6646TIP3    H141497   4.592   1.593   7.554 -0.6300  1.6224  3.0239
 6646TIP3    H241498   4.563   1.693   7.444  1.3641  0.1754  1.1023
 6647TIP3   OH241499   6.065   3.128   2.524  0.1598 -0.0504 -0.6258
 6647TIP3    H141500   6.110   3.125   2.609  0.2033  2.0331 -0.5252
 6647TIP3    H241501   6.134   3.109   2.460  0.8294  1.3274 -0.3556
 6648TIP3   OH241502   5.531   2.344   0.512  0.1179 -0.7613 -0.3913
 6648TIP3    H141503   5.563   2.435   0.514 -3.4385  0.6462  1.4745
 6648TIP3    H241504   5.453   2.348   0.457 -1.6751 -1.9906  1.8937
 6649TIP3   OH241505   3.492   6.470   8.720 -0.0115  0.2129 -0.0748
 6649TIP3    H141506   3.474   6.490   8.628 -1.5606 -0.5725  0.0228
 6649TIP3    H241507   3.447   6.539   8.768 -0.0617  0.0414  0.1239
 6650TIP3   OH241508   1.452   5.186   2.298  0.2057  0.1272  0.2041
 6650TIP3    H141509   1.390   5.183   2.371  0.6617  3.1860  0.8664
 6650TIP3    H241510   1.437   5.104   2.250 -3.7618  0.2940  0.7713
 6651TIP3   OH241511   2.497   0.924   2.434  0.0439 -0.3127 -0.0167
 6651TIP3    H141512   2.445   0.914   2.514  1.6432  0.9035  1.2578
 6651TIP3    H241513   2.570   0.864   2.445  0.3732 -0.0052 -0.4694
 6652TIP3   OH241514   0.084   0.298   1.025  0.2443 -0.1154 -0.1798
 6652TIP3    H141515   0.179   0.288   1.019  0.6337  2.4100  0.6726
 6652TIP3    H241516   0.071   0.360   1.096 -2.1490 -1.3255  0.5247
 6653TIP3   OH241517   5.716   0.698   1.695 -0.1599 -0.5625  0.3940
 6653TIP3    H141518   5.710   0.763   1.626 -0.9959 -0.5758  0.4445
 6653TIP3    H241519   5.794   0.722   1.745  0.4105 -0.5159 -0.5028
 6654TIP3   OH241520   2.385   4.581   2.465 -0.2940 -0.1075  0.4086
 6654TIP3    H141521   2.334   4.587   2.384  1.3026  1.7239 -0.5461
 6654TIP3    H241522   2.410   4.489   2.470 -0.4986 -0.2786 -1.1429
 6655TIP3   OH241523   5.096   2.010   3.159 -0.5061 -0.2109 -0.1942
 6655TIP3    H141524   5.115   2.103   3.147  2.3537 -0.7369 -0.3282
 6655TIP3    H241525   5.124   1.991   3.248  1.7082 -1.4771 -1.0701
 6656TIP3   OH241526   5.616   6.697   0.437 -0.3681  0.2683  0.1749
 6656TIP3    H141527   5.708   6.673   0.446 -0.7296 -1.9371 -1.1420
 6656TIP3    H241528   5.616   6.766   0.370  0.3174  0.3001  0.1993
 6657TIP3   OH241529   0.606   0.044   1.575  0.1871 -0.1199  0.0371
 6657TIP3    H141530   0.540   0.112   1.589  0.5935  0.0142  1.4673
 6657TIP3    H241531   0.561  -0.022   1.522 -0.9479  0.1950  0.5694
 6658TIP3   OH241532   3.895   3.611   1.465 -0.4451 -0.3888 -0.0260
 6658TIP3    H141533   3.862   3.616   1.554  0.8243  0.5806  0.4088
 6658TIP3    H241534   3.832   3.660   1.412 -1.6151 -1.6176  0.1890
 6659TIP3   OH241535   0.895   1.502   8.737 -0.7599  0.5655 -0.0271
 6659TIP3    H141536   0.899   1.510   8.642  0.9904  1.3204  0.0823
 6659TIP3    H241537   0.896   1.593   8.769  2.2473  0.3396  0.7686
 6660TIP3   OH241538   0.758   6.555   8.653 -0.3658 -0.0608  0.6275
 6660TIP3    H141539   0.759   6.544   8.748  0.1678  0.3371  0.6746
 6660TIP3    H241540   0.680   6.608   8.636 -0.8034 -0.6489  0.7768
 6661TIP3   OH241541   3.803   6.100   8.861 -0.3336  0.2156 -0.4475
 6661TIP3    H141542   3.798   6.181   8.911 -1.8056  0.0663 -0.3174
 6661TIP3    H241543   3.744   6.113   8.786 -0.5573 -0.7076 -0.4536
 6662TIP3   OH241544   2.201   4.044   7.498 -0.5985  0.4949 -0.3266
 6662TIP3    H141545   2.234   3.989   7.427 -0.4382  1.1212 -0.7508
 6662TIP3    H241546   2.165   4.121   7.454  0.8731  1.6165  0.3183
 6663TIP3   OH241547   0.306   0.444   1.838  0.5775 -0.0337 -0.5288
 6663TIP3    H141548   0.352   0.527   1.853  0.3549 -0.0104  0.0757
 6663TIP3    H241549   0.328   0.390   1.915  1.5561 -0.9255 -1.4046
 6664TIP3   OH241550   1.527   6.031   3.284  0.5662  0.0063  0.0549
 6664TIP3    H141551   1.455   6.049   3.223 -0.0765  0.6338  0.9823
 6664TIP3    H241552   1.605   6.031   3.228  0.0824  1.3210 -0.6626
 6665TIP3   OH241553   1.852   5.464   8.858 -0.3686 -0.3390 -0.4989
 6665TIP3    H141554   1.792   5.455   8.784 -0.9264  0.9053 -0.2262
 6665TIP3    H241555   1.935   5.427   8.826 -1.7050 -3.9804 -0.2225
 6666TIP3   OH241556   5.783   0.952   8.026 -0.2967 -0.2285 -0.2584
 6666TIP3    H141557   5.708   0.992   7.983  0.1546  0.8432 -0.0811
 6666TIP3    H241558   5.830   0.907   7.955  1.0283  2.4268 -1.1767
 6667TIP3   OH241559   5.445   3.108   8.519  0.2647  0.1648  0.8787
 6667TIP3    H141560   5.536   3.086   8.499  0.1051 -0.3802  0.7236
 6667TIP3    H241561   5.437   3.201   8.499  0.1891 -0.2792 -1.4004
 6668TIP3   OH241562   5.263   5.206   8.900 -0.2803 -0.1905  0.1165
 6668TIP3    H141563   5.269   5.141   8.970 -0.9759 -0.6753 -0.2580
 6668TIP3    H241564   5.177   5.192   8.862 -0.2601  0.6657 -0.2644
 6669TIP3   OH241565   1.100   3.222   8.183  0.3165  0.5344  0.3909
 6669TIP3    H141566   1.058   3.151   8.135  1.4228  1.1054 -1.4964
 6669TIP3    H241567   1.141   3.179   8.259 -1.2988 -0.4036  0.7714
 6670TIP3   OH241568   6.485   6.020   0.460  0.2071 -0.3241  0.1832
 6670TIP3    H141569   6.427   6.092   0.483 -0.5838 -0.7791 -0.3361
 6670TIP3    H241570   6.438   5.941   0.488  0.1769 -0.7528 -0.9892
 6671TIP3   OH241571   1.096   0.351   1.334 -0.2478  0.1866 -0.5709
 6671TIP3    H141572   1.170   0.327   1.391 -0.9226 -0.4678  0.0515
 6671TIP3    H241573   1.022   0.362   1.394 -1.5472 -2.7616 -1.4363
 6672TIP3   OH241574   0.426   5.324   0.395 -0.5890 -0.2760 -0.0596
 6672TIP3    H141575   0.501   5.361   0.348 -1.0405 -0.1979 -0.7254
 6672TIP3    H241576   0.442   5.347   0.487 -0.4940  0.9573 -0.3707
 6673TIP3   OH241577   4.208   5.489   7.616  0.1538  0.1843 -0.0275
 6673TIP3    H141578   4.122   5.515   7.649  0.3440  0.9578 -0.1137
 6673TIP3    H241579   4.214   5.395   7.634 -0.1074  0.4059  1.3063
 6674TIP3   OH241580   3.541   0.022   8.208  0.2765  0.1258  0.0278
 6674TIP3    H141581   3.612   0.045   8.268  1.2539 -1.6717 -0.3641
 6674TIP3    H241582   3.561  -0.068   8.181 -1.4431  0.0521 -1.1307
 6675TIP3   OH241583   2.490   2.851   8.009 -0.7473 -0.5375 -0.7190
 6675TIP3    H141584   2.580   2.883   8.018 -1.1285  0.3407  0.1726
 6675TIP3    H241585   2.449   2.870   8.094 -1.3535 -2.3231 -0.5635
 6676TIP3   OH241586   0.876   6.599   0.956  0.4171 -0.7423 -0.6565
 6676TIP3    H141587   0.953   6.545   0.977 -1.2401 -3.1945 -0.5205
 6676TIP3    H241588   0.823   6.596   1.035 -0.1677  0.3817 -0.9816
 6677TIP3   OH241589   4.605   1.414   0.090  0.2798  0.3023  0.4866
 6677TIP3    H141590   4.552   1.350   0.042  0.1129  0.5740  0.3062
 6677TIP3    H241591   4.560   1.498   0.076  1.3842  0.7390 -0.6186
 6678TIP3   OH241592   0.331   4.922   8.261 -0.3024 -0.0542 -0.1394
 6678TIP3    H141593   0.259   4.979   8.290  0.6793  2.4943 -2.2853
 6678TIP3    H241594   0.332   4.850   8.324 -4.1186  0.2577  0.4794
 6679TIP3   OH241595   0.357   5.623   2.656 -0.3108 -0.4347  0.7195
 6679TIP3    H141596   0.293   5.694   2.649 -0.7584 -0.9262 -0.7059
 6679TIP3    H241597   0.438   5.665   2.684 -0.9694  0.3790  1.4231
 6680TIP3   OH241598   6.703   0.751   7.997  0.1130  0.1163 -0.8182
 6680TIP3    H141599   6.710   0.696   7.919 -0.5586 -3.0756  1.1465
 6680TIP3    H241600   6.612   0.782   7.996 -0.2464 -0.8783 -0.7833
 6681TIP3   OH241601   3.274   4.766   7.945 -0.2093 -0.5030  0.0736
 6681TIP3    H141602   3.252   4.806   7.861 -1.9601 -0.6138  0.4391
 6681TIP3    H241603   3.297   4.839   8.002  2.3695 -0.5130 -0.8120
 6682TIP3   OH241604   4.627   4.473   8.264 -0.6806  0.0940  0.7321
 6682TIP3    H141605   4.712   4.474   8.220 -0.1536 -0.5460  1.7040
 6682TIP3    H241606   4.563   4.482   8.193  0.2105  1.6145  0.0698
 6683TIP3   OH241607   0.884   3.415   8.193  0.4828  0.4750 -0.0358
 6683TIP3    H141608   0.869   3.427   8.287 -1.3838 -0.7685 -0.1211
 6683TIP3    H241609   0.955   3.350   8.188  1.1395  1.1383  0.4908
 6684TIP3   OH241610   1.786   2.714   1.966 -0.5604  0.2921  0.3109
 6684TIP3    H141611   1.874   2.698   1.933 -0.0991  1.1149  1.0928
 6684TIP3    H241612   1.799   2.764   2.047 -1.7346  0.2755  0.5306
 6685TIP3   OH241613   0.419   0.389   0.721 -0.2500  0.8655  0.1306
 6685TIP3    H141614   0.421   0.472   0.674 -0.2524  0.6256 -0.2978
 6685TIP3    H241615   0.453   0.325   0.659 -3.4906 -0.0815 -0.8263
 6686TIP3   OH241616   1.422   4.112   8.460  0.2783 -0.1218 -0.0693
 6686TIP3    H141617   1.494   4.154   8.413 -1.5217  1.0068 -1.9896
 6686TIP3    H241618   1.352   4.177   8.460 -2.5106 -2.7603 -2.7703
 6687TIP3   OH241619   4.982   5.681   0.446  0.0145 -0.2621 -0.0949
 6687TIP3    H141620   5.072   5.665   0.472  0.6670  1.7503 -0.9320
 6687TIP3    H241621   4.966   5.621   0.373  0.2636 -1.4389  0.7974
 6688TIP3   OH241622   5.609   0.562   2.188 -0.1622 -0.5827  0.4736
 6688TIP3    H141623   5.581   0.567   2.279 -1.7813 -0.6660  0.0197
 6688TIP3    H241624   5.577   0.643   2.148  0.5943 -0.5081 -0.0171
 6689TIP3   OH241625   5.991   3.509   1.595  0.0371  0.1591 -0.6031
 6689TIP3    H141626   5.896   3.518   1.586 -0.3825 -2.3525  0.5234
 6689TIP3    H241627   6.027   3.544   1.513 -1.8765  0.5553 -1.3148
 6690TIP3   OH241628   2.756   5.232   8.920  0.1281  0.0959  0.9217
 6690TIP3    H141629   2.777   5.182   8.999  0.3916 -0.4509  0.5177
 6690TIP3    H241630   2.804   5.314   8.928  1.2026 -0.4972  0.7299
 6691TIP3   OH241631   0.666   2.599   3.369  0.3440 -0.3237 -0.0373
 6691TIP3    H141632   0.685   2.591   3.463 -0.4040  1.7893  0.3491
 6691TIP3    H241633   0.575   2.628   3.365  0.8248  1.1035 -1.3453
 6692TIP3   OH241634   5.866   4.811   3.416  0.1923 -0.6488  0.1880
 6692TIP3    H141635   5.943   4.808   3.473  0.2584  0.7808  0.2149
 6692TIP3    H241636   5.886   4.750   3.346  2.3394  1.2230 -0.9609
 6693TIP3   OH241637   3.989   1.427   0.520  0.1296  0.2473 -0.0577
 6693TIP3    H141638   3.914   1.460   0.471 -0.1296  1.1443  0.8970
 6693TIP3    H241639   4.019   1.502   0.571  1.4341 -0.2032 -0.1121
 6694TIP3   OH241640   5.606   0.357   0.397 -0.3574 -0.6010  0.3631
 6694TIP3    H141641   5.605   0.288   0.331 -0.5365 -1.2351  1.0073
 6694TIP3    H241642   5.690   0.402   0.384 -1.2957  0.7119 -1.6917
 6695TIP3   OH241643   4.787   0.962   8.579 -0.2580  0.3283 -0.6301
 6695TIP3    H141644   4.856   0.912   8.536 -0.2230  1.8847 -2.4930
 6695TIP3    H241645   4.828   1.045   8.603 -1.2341  0.9174 -0.9267
 6696TIP3   OH241646   3.273   1.412   3.269  0.7319 -0.1086 -0.3839
 6696TIP3    H141647   3.301   1.345   3.332 -1.2734 -0.3448  0.3216
 6696TIP3    H241648   3.203   1.371   3.220  1.4937  0.4829 -2.0251
 6697TIP3   OH241649   4.012   1.692   8.630 -0.0494 -0.6195 -0.5977
 6697TIP3    H141650   4.002   1.720   8.539  1.3471  0.5958 -0.4221
 6697TIP3    H241651   4.106   1.677   8.640 -0.3191 -1.8463  0.3560
 6698TIP3   OH241652   3.901   5.732   0.498  0.2296  0.8138 -0.0895
 6698TIP3    H141653   3.928   5.675   0.426  0.3397  1.1275 -0.2968
 6698TIP3    H241654   3.909   5.821   0.463 -1.4379  0.9123 -0.3028
 6699TIP3   OH241655   3.571   4.249   1.222  0.4258  0.0840  0.3683
 6699TIP3    H141656   3.639   4.302   1.263 -0.1772  0.9438  0.2746
 6699TIP3    H241657   3.489   4.287   1.252 -0.0376  0.7019 -1.5185
 6700TIP3   OH241658   0.653   4.248   2.996 -0.4833 -0.5055  0.6143
 6700TIP3    H141659   0.717   4.226   3.064 -0.1961  0.8000  0.7915
 6700TIP3    H241660   0.594   4.311   3.038  0.4430  1.2995 -0.6724
 6701TIP3   OH241661   5.716   6.613   8.850 -0.4711 -0.3168  0.2345
 6701TIP3    H141662   5.731   6.699   8.889 -2.3337  0.3715 -0.4376
 6701TIP3    H241663   5.686   6.559   8.923 -0.0981 -0.1703  0.5004
 6702TIP3   OH241664   2.323   5.451   0.650  0.8847  0.1203 -0.0697
 6702TIP3    H141665   2.301   5.462   0.743  0.7389  0.4015 -0.1345
 6702TIP3    H241666   2.239   5.431   0.608  0.4007  2.8039 -0.5710
 6703TIP3   OH241667   4.298   2.603   1.039 -0.4858 -0.3259  0.3522
 6703TIP3    H141668   4.255   2.536   0.986 -1.0227 -0.3442  0.8106
 6703TIP3    H241669   4.339   2.661   0.974 -1.1499 -0.3393 -0.0884
 6704TIP3   OH241670   1.147   3.998   7.836  1.0764  0.1254 -0.0089
 6704TIP3    H141671   1.168   4.040   7.752 -0.5927 -1.6250 -1.3938
 6704TIP3    H241672   1.175   3.907   7.826  1.5258  0.0438  1.6483
 6705TIP3   OH241673   4.166   2.037   2.025  0.2059 -0.0643 -0.0977
 6705TIP3    H141674   4.256   2.049   2.057  0.4550 -3.8916  1.1094
 6705TIP3    H241675   4.112   2.083   2.089  1.1510 -1.3952  1.7671
 6706TIP3   OH241676   2.575   2.077   2.110  0.3329 -0.2598 -0.0028
 6706TIP3    H141677   2.547   2.063   2.020  0.4698  0.9618 -0.2552
 6706TIP3    H241678   2.573   1.990   2.150  1.0403 -0.9405 -1.3851
 6707TIP3   OH241679   6.359   0.473   8.162  0.3087 -0.3605  0.3421
 6707TIP3    H141680   6.327   0.519   8.084 -0.4807  1.5642  1.7059
 6707TIP3    H241681   6.445   0.441   8.137 -0.1690 -0.3607 -1.5075
 6708TIP3   OH241682   5.409   6.689   2.054  0.1573 -0.4417  0.0447
 6708TIP3    H141683   5.357   6.769   2.048  1.1440  0.2894  0.9421
 6708TIP3    H241684   5.394   6.657   2.143  0.9548 -0.4146  0.1930
 6709TIP3   OH241685   0.259   1.703   2.226  0.2306  0.3262  0.4673
 6709TIP3    H141686   0.294   1.614   2.230  0.2491  0.3668  1.3645
 6709TIP3    H241687   0.306   1.744   2.154 -1.2392 -1.0122 -1.3520
 6710TIP3   OH241688   1.643   1.563   0.571 -0.1170  0.2495  0.1192
 6710TIP3    H141689   1.566   1.507   0.565 -0.2843  0.4904  0.0155
 6710TIP3    H241690   1.667   1.561   0.664  0.9019 -1.3631 -0.1454
 6711TIP3   OH241691   0.290   1.065   2.617  0.3819 -0.0889  0.1455
 6711TIP3    H141692   0.273   1.061   2.711 -0.4137 -1.3411 -0.0252
 6711TIP3    H241693   0.385   1.061   2.609  0.4750  0.3945  0.8950
 6712TIP3   OH241694   1.078   0.068   8.909 -0.7973  0.3872 -0.5258
 6712TIP3    H141695   1.068   0.100   8.999  0.1103 -1.2524  0.2030
 6712TIP3    H241696   1.171   0.074   8.891 -0.9898  0.8767 -1.4642
 6713TIP3   OH241697   5.485   2.853   0.320  0.0261  0.3806 -0.2604
 6713TIP3    H141698   5.492   2.774   0.374 -0.5796 -0.7376 -1.7449
 6713TIP3    H241699   5.395   2.884   0.334 -0.1074  0.1332 -0.5599
 6714TIP3   OH241700   2.116   4.489   2.631  1.0377  0.3214 -0.0944
 6714TIP3    H141701   2.033   4.503   2.585  0.6904  0.5741  0.6015
 6714TIP3    H241702   2.182   4.528   2.573  0.6406  0.3741 -0.5151
 6715TIP3   OH241703   0.195   4.957   8.500  0.1286  0.1955  0.2200
 6715TIP3    H141704   0.192   4.927   8.591  0.1949  0.3140  0.2611
 6715TIP3    H241705   0.113   4.926   8.462  0.0489  0.2453  0.3505
 6716TIP3   OH241706   0.204   3.639   1.764  0.3535  0.6202 -0.0185
 6716TIP3    H141707   0.233   3.716   1.813 -1.0379  1.0407  0.1961
 6716TIP3    H241708   0.241   3.652   1.677  0.7763  1.1467  0.2301
 6717TIP3   OH241709   0.493   0.302   2.657 -0.1713  0.0626  0.1380
 6717TIP3    H141710   0.527   0.216   2.683 -0.1802 -0.1461 -0.5148
 6717TIP3    H241711   0.570   0.354   2.636 -0.1554  0.2915  0.7672
 6718TIP3   OH241712   0.224   2.615   8.910  0.3358  0.8284  0.6653
 6718TIP3    H141713   0.189   2.579   8.991  0.5890  0.9655  0.8371
 6718TIP3    H241714   0.198   2.552   8.842 -2.0817  1.9215  0.4335
 6719TIP3   OH241715   3.674   4.874   3.150 -0.5230 -0.3368 -0.4636
 6719TIP3    H141716   3.715   4.958   3.172 -1.1577  0.1004 -0.8992
 6719TIP3    H241717   3.683   4.821   3.229 -1.1543  0.5540  0.2260
 6720TIP3   OH241718   5.710   3.849   2.977 -0.0337 -0.1802  0.1589
 6720TIP3    H141719   5.675   3.863   3.065  1.2000 -2.0447  1.0160
 6720TIP3    H241720   5.652   3.784   2.938 -0.5448  0.6012 -0.4054
 6721TIP3   OH241721   2.990   4.566   0.233  0.0807 -0.0365  0.0302
 6721TIP3    H141722   3.030   4.618   0.163 -0.2704 -0.6913 -0.6686
 6721TIP3    H241723   2.939   4.499   0.188 -0.0008 -0.5959  0.9157
 6722TIP3   OH241724   2.501   4.476   0.303  0.2195 -0.4809 -0.4988
 6722TIP3    H141725   2.499   4.397   0.357 -2.5235 -0.4519 -0.4187
 6722TIP3    H241726   2.497   4.549   0.365 -2.1652 -0.4367 -0.6031
 6723TIP3   OH241727   0.419   4.765   8.512 -0.3524 -0.2317  0.7645
 6723TIP3    H141728   0.390   4.856   8.502 -0.1601 -0.4105 -2.9062
 6723TIP3    H241729   0.350   4.723   8.564 -1.8109  1.4312  0.2645
 6724TIP3   OH241730   6.759   6.078   1.286  0.4945  0.8946  0.5450
 6724TIP3    H141731   6.800   6.079   1.200 -1.3886  0.7093 -0.4028
 6724TIP3    H241732   6.821   6.125   1.342  1.8782  0.7956 -0.8273
 6725TIP3   OH241733   5.721   2.993   0.792 -0.5330  0.1420 -0.4505
 6725TIP3    H141734   5.779   3.001   0.868 -0.6889 -2.5998  0.0389
 6725TIP3    H241735   5.636   3.022   0.825 -0.0738  1.4687 -0.3712
 6726TIP3   OH241736   2.798   0.885   2.342 -0.7856  0.6281  0.1295
 6726TIP3    H141737   2.824   0.908   2.431  0.7964  0.5251 -0.2622
 6726TIP3    H241738   2.800   0.789   2.341  2.3062  0.5906 -0.7681
 6727TIP3   OH241739   1.938   0.461   8.640  0.1902  0.3893 -0.2440
 6727TIP3    H141740   1.978   0.447   8.726 -1.9966 -2.4476  0.4635
 6727TIP3    H241741   1.935   0.556   8.631  0.3983  0.8175  2.9138
 6728TIP3   OH241742   5.380   2.564   2.932 -0.3974 -0.1954 -0.7662
 6728TIP3    H141743   5.290   2.546   2.903 -0.1305 -3.1651 -0.1094
 6728TIP3    H241744   5.370   2.630   3.001 -1.9766  0.2094 -1.3351
 6729TIP3   OH241745   0.450   4.365   8.741  0.0356  0.2603 -0.3606
 6729TIP3    H141746   0.386   4.294   8.751 -0.3513  0.4878 -1.1253
 6729TIP3    H241747   0.421   4.412   8.662  0.4872  1.0558 -0.0596
 6730TIP3   OH241748   4.350   4.579   8.268 -0.3152 -0.3090 -0.1410
 6730TIP3    H141749   4.329   4.504   8.324  0.5384 -0.2594  0.2665
 6730TIP3    H241750   4.314   4.654   8.315 -0.4898 -0.3777 -0.1647
 6731TIP3   OH241751   0.407   0.620   0.444 -0.2583  0.5926  0.3962
 6731TIP3    H141752   0.419   0.556   0.374  0.2418 -1.9280  2.6308
 6731TIP3    H241753   0.485   0.675   0.441  0.8091 -0.8922  0.3072
 6732TIP3   OH241754   0.664   1.824   8.112  0.5563  0.1966 -0.9649
 6732TIP3    H141755   0.656   1.904   8.062 -0.2512  0.3601 -0.5919
 6732TIP3    H241756   0.663   1.754   8.046 -2.9350  0.2402 -1.1480
 6733TIP3   OH241757   1.089   4.745   2.791 -0.2055 -0.4850  0.3794
 6733TIP3    H141758   1.161   4.692   2.755 -0.2489 -1.2018  1.3308
 6733TIP3    H241759   1.082   4.819   2.730 -0.8797 -2.0962 -1.6322
 6734TIP3   OH241760   3.770   2.442   1.142  0.3543 -0.3140 -0.1328
 6734TIP3    H141761   3.754   2.485   1.058  0.7749  1.2901  0.5735
 6734TIP3    H241762   3.824   2.366   1.120  1.6419  0.8450 -1.2019
 6735TIP3   OH241763   3.802   3.600   1.774 -0.6072  0.3863  0.0464
 6735TIP3    H141764   3.831   3.642   1.855  0.7114 -2.4097  1.1308
 6735TIP3    H241765   3.709   3.622   1.767 -1.0126 -0.0947  2.8933
 6736TIP3   OH241766   2.502   6.016   8.437  0.2372  0.4549  0.2572
 6736TIP3    H141767   2.484   6.109   8.419  1.5652  0.6153 -0.3449
 6736TIP3    H241768   2.498   6.009   8.532  1.2486  1.3889  0.3916
 6737TIP3   OH241769   2.213   6.006   2.352  0.1583  0.2285  0.3538
 6737TIP3    H141770   2.124   6.010   2.386 -0.0820 -1.3704 -0.0322
 6737TIP3    H241771   2.235   6.098   2.334 -1.6038  0.6198 -0.0416
 6738TIP3   OH241772   0.193   1.961   7.650 -0.2155  0.0188 -0.0416
 6738TIP3    H141773   0.129   1.991   7.714 -0.8968 -0.2468 -0.5861
 6738TIP3    H241774   0.211   2.038   7.596 -1.2189 -0.2659 -0.8202
 6739TIP3   OH241775   6.441   0.990   3.153  0.1616 -0.5869 -0.6160
 6739TIP3    H141776   6.534   0.998   3.132  0.8077 -3.3095  0.7862
 6739TIP3    H241777   6.438   0.992   3.249 -1.5499  1.6209 -0.6163
 6740TIP3   OH241778   3.760   5.251   8.368 -0.2903  1.1252  0.2522
 6740TIP3    H141779   3.719   5.187   8.426  1.7012  0.8596  1.4848
 6740TIP3    H241780   3.739   5.221   8.280 -0.7679 -0.2926  0.8176
 6741TIP3   OH241781   2.201   6.398   7.558 -0.4142 -0.0068  0.2998
 6741TIP3    H141782   2.224   6.463   7.625 -0.0298 -0.6343  0.7998
 6741TIP3    H241783   2.189   6.449   7.478 -1.5065  0.8370  0.9712
 6742TIP3   OH241784   5.445   1.970   0.332  0.1330  0.2373  1.1721
 6742TIP3    H141785   5.535   1.949   0.357  0.5207 -0.2733 -0.5129
 6742TIP3    H241786   5.404   1.999   0.413  1.8054  0.4588  1.9929
 6743TIP3   OH241787   1.443   3.561   2.461 -0.3619 -0.2149  0.0619
 6743TIP3    H141788   1.510   3.505   2.423 -0.3010 -0.3273  0.3336
 6743TIP3    H241789   1.403   3.605   2.386 -0.9240 -1.1869 -0.2310
 6744TIP3   OH241790   3.854   5.235   0.521 -0.0334 -0.4516  0.0670
 6744TIP3    H141791   3.804   5.305   0.564 -0.7390  0.0952 -1.5816
 6744TIP3    H241792   3.930   5.280   0.483  1.2964 -1.1350  1.7717
 6745TIP3   OH241793   3.423   6.054   8.477  0.5350 -0.4380  0.0839
 6745TIP3    H141794   3.513   6.050   8.446  0.8567  1.8122  0.5113
 6745TIP3    H241795   3.424   6.010   8.563  0.5682 -2.8272 -1.0660
 6746TIP3   OH241796   4.352   1.609   0.601 -0.2171  0.1196 -0.0371
 6746TIP3    H141797   4.311   1.673   0.660  0.4724  0.2127  0.3431
 6746TIP3    H241798   4.439   1.595   0.637  0.2144  0.1689 -1.0312
 6747TIP3   OH241799   5.136   6.026   1.862 -0.1561  0.2807 -0.2388
 6747TIP3    H141800   5.141   6.052   1.954 -2.0850  1.4369 -0.4065
 6747TIP3    H241801   5.203   6.079   1.818  0.0362  0.5083  0.3228
 6748TIP3   OH241802   1.209   0.075   7.466 -0.1907 -0.5798 -0.5141
 6748TIP3    H141803   1.194  -0.016   7.441 -1.4078 -0.9129  1.2594
 6748TIP3    H241804   1.249   0.115   7.388 -0.0409 -2.5021 -1.4756
 6749TIP3   OH241805   6.030   2.922   2.042 -0.2774 -0.0236 -0.4819
 6749TIP3    H141806   6.099   2.977   2.079  0.4800 -0.2792 -1.4553
 6749TIP3    H241807   5.951   2.946   2.090  0.3294  0.8666  0.0989
 6750TIP3   OH241808   0.919   6.191   1.509 -0.6915  0.5537  0.0663
 6750TIP3    H141809   1.003   6.168   1.547 -1.4352 -0.4415  1.1790
 6750TIP3    H241810   0.927   6.284   1.488  0.0668  0.9498  1.8863
 6751TIP3   OH241811   1.568   1.479   2.742  0.0319  0.2120  0.1266
 6751TIP3    H141812   1.548   1.526   2.662  3.0123  0.3971 -0.5957
 6751TIP3    H241813   1.589   1.547   2.806 -0.0582 -0.0173  0.4047
 6752TIP3   OH241814   4.654   2.762   2.900 -0.4418  0.0068 -0.0030
 6752TIP3    H141815   4.633   2.684   2.951  0.0792 -1.1701 -1.5145
 6752TIP3    H241816   4.667   2.831   2.965 -0.3757 -1.2908  1.4008
 6753TIP3   OH241817   2.263   5.817   8.532  0.1243 -0.2692  0.1448
 6753TIP3    H141818   2.301   5.834   8.446 -1.5997 -2.0602 -1.0529
 6753TIP3    H241819   2.174   5.852   8.527 -0.6926 -2.1936  0.4503
 6754TIP3   OH241820   6.216   2.555   2.403  0.1961 -0.0133 -0.0300
 6754TIP3    H141821   6.294   2.527   2.452 -0.5502  0.2808  1.3992
 6754TIP3    H241822   6.244   2.556   2.312  1.9360  0.3111  0.4666
 6755TIP3   OH241823   3.639   2.703   3.322 -0.3365  0.5406 -0.2226
 6755TIP3    H141824   3.676   2.737   3.403 -1.5152  0.1439  0.5025
 6755TIP3    H241825   3.582   2.773   3.291 -1.6217 -0.1549  0.4951
 6756TIP3   OH241826   6.031   1.877   2.802  0.8754 -0.0149 -0.6322
 6756TIP3    H141827   5.948   1.924   2.810  0.0676 -0.8101 -3.2322
 6756TIP3    H241828   6.086   1.912   2.872 -1.1572  1.5584  0.2769
 6757TIP3   OH241829   2.107   2.206   7.867  0.0689  0.3998  0.1430
 6757TIP3    H141830   2.120   2.250   7.952 -1.9376  0.8007  0.2728
 6757TIP3    H241831   2.105   2.277   7.803  0.6691  0.1663 -0.1461
 6758TIP3   OH241832   0.227   6.165   1.464  0.5662 -0.4816  0.2808
 6758TIP3    H141833   0.283   6.101   1.421  0.2864 -0.7894  0.3678
 6758TIP3    H241834   0.203   6.124   1.547  0.0106 -0.4627  0.1371
 6759TIP3   OH241835   5.243   5.695   2.077 -0.1275  0.1814 -0.7270
 6759TIP3    H141836   5.263   5.786   2.055  0.7769  0.6749  1.7913
 6759TIP3    H241837   5.183   5.701   2.152 -2.2662 -1.3597 -2.1711
 6760TIP3   OH241838   3.936   1.645   1.037 -0.1076 -0.2829  0.4945
 6760TIP3    H141839   3.968   1.556   1.022 -2.5115 -1.4864  1.8365
 6760TIP3    H241840   3.999   1.684   1.098  2.7370  0.2083 -2.4735
 6761TIP3   OH241841   1.987   2.379   2.682 -0.3336 -0.1145  0.5313
 6761TIP3    H141842   2.076   2.343   2.673 -0.5995 -0.6009 -0.2614
 6761TIP3    H241843   1.949   2.330   2.754 -0.0014 -0.0018  0.7853
 6762TIP3   OH241844   4.370   1.426   2.988 -0.0408  0.2462  0.0597
 6762TIP3    H141845   4.354   1.520   2.994 -0.2955  0.2359 -0.3909
 6762TIP3    H241846   4.439   1.417   2.922 -0.7358  0.0607 -0.6653
 6763TIP3   OH241847   1.404   6.649   2.739  0.0554  0.0724  0.6471
 6763TIP3    H141848   1.324   6.602   2.717 -0.3537  1.5499 -1.2445
 6763TIP3    H241849   1.393   6.674   2.831 -0.3317 -2.2086  1.2681
 6764TIP3   OH241850   6.297   6.359   2.146  0.1829 -0.0426 -0.0678
 6764TIP3    H141851   6.378   6.371   2.098  1.7408 -2.3379  1.7698
 6764TIP3    H241852   6.314   6.398   2.232 -1.0194  0.3129  0.0245
 6765TIP3   OH241853   0.243   0.665   1.564 -0.1929 -0.0030 -0.5346
 6765TIP3    H141854   0.214   0.574   1.575 -0.5545 -0.1162 -2.1471
 6765TIP3    H241855   0.205   0.711   1.639 -1.5542 -0.8447 -0.6692
 6766TIP3   OH241856   6.290   3.394   0.966  0.0093  0.5677 -0.1014
 6766TIP3    H141857   6.304   3.488   0.977 -1.0165  0.5777  1.4042
 6766TIP3    H241858   6.377   3.356   0.968  0.4592  1.4968 -0.9691
 6767TIP3   OH241859   3.405   0.466   2.300  0.1622 -0.0069 -0.4907
 6767TIP3    H141860   3.320   0.496   2.330  1.4622  1.7649  1.7068
 6767TIP3    H241861   3.429   0.527   2.231 -0.8795 -1.3865 -2.1744
 6768TIP3   OH241862   4.899   0.006   1.073  0.3706  0.0937  0.3417
 6768TIP3    H141863   4.822  -0.038   1.110  1.0642  0.9402  3.0474
 6768TIP3    H241864   4.867   0.091   1.043  0.2171  0.5204  1.6338
 6769TIP3   OH241865   0.022   0.442   1.252 -0.7090  0.0723  0.2336
 6769TIP3    H141866  -0.004   0.405   1.337 -0.4193  1.3839  0.9121
 6769TIP3    H241867   0.012   0.536   1.263  1.4464  0.4321 -0.4598
 6770TIP3   OH241868   4.707   4.144   7.899  0.2137 -0.7132 -0.1285
 6770TIP3    H141869   4.627   4.099   7.872  0.3581 -0.5717 -0.8140
 6770TIP3    H241870   4.765   4.074   7.928  0.9354 -1.1805 -2.4374
 6771TIP3   OH241871   3.344   1.454   1.017 -0.2038 -0.3178  0.1996
 6771TIP3    H141872   3.374   1.401   1.091 -0.3344 -2.1084 -0.9695
 6771TIP3    H241873   3.294   1.393   0.962 -0.0682  0.9331 -1.3939
 6772TIP3   OH241874   3.169   2.480   3.279 -0.2841  0.9054 -0.0915
 6772TIP3    H141875   3.240   2.544   3.286  0.9886 -0.5501  1.4064
 6772TIP3    H241876   3.090   2.529   3.303  0.8842  1.6205  2.8031
 6773TIP3   OH241877   1.170   2.678   1.162 -0.0694  0.4922 -0.0059
 6773TIP3    H141878   1.205   2.608   1.218  1.0364  2.5523  2.0484
 6773TIP3    H241879   1.138   2.744   1.223  0.9209  2.7399 -1.7629
 6774TIP3   OH241880   3.807   4.464   8.579 -0.3347 -0.5162  0.2348
 6774TIP3    H141881   3.746   4.390   8.582 -0.1307 -0.8097 -1.5295
 6774TIP3    H241882   3.766   4.526   8.519  0.0595  0.2834  0.7739
 6775TIP3   OH241883   1.782   1.112   3.026  0.0481  0.0006  0.3354
 6775TIP3    H141884   1.870   1.078   3.044 -0.2393 -1.0638 -0.2044
 6775TIP3    H241885   1.763   1.085   2.936 -0.5322  0.8849  0.1804
 6776TIP3   OH241886   0.143   6.296   2.859  0.1280 -0.0501  0.4370
 6776TIP3    H141887   0.121   6.214   2.903 -1.9796  0.9990  1.4794
 6776TIP3    H241888   0.231   6.318   2.891  0.1103 -1.1465  1.2924
 6777TIP3   OH241889   0.457   3.924   8.602  0.2404  0.0459 -0.1009
 6777TIP3    H141890   0.485   3.999   8.654 -1.3542  1.0285 -0.5832
 6777TIP3    H241891   0.531   3.907   8.543 -0.1175  2.6712 -1.4738
 6778TIP3   OH241892   5.614   5.726   0.117  0.4605  0.0208  0.3744
 6778TIP3    H141893   5.674   5.679   0.175  1.0028  0.1737 -0.0552
 6778TIP3    H241894   5.666   5.744   0.039 -0.7563 -1.6687 -0.8901
 6779TIP3   OH241895   2.457   3.047   7.635 -0.3682  0.2896  0.1883
 6779TIP3    H141896   2.402   2.968   7.646  1.7702 -1.0794  2.0328
 6779TIP3    H241897   2.543   3.013   7.612  0.7932  2.0283  1.7054
 6780TIP3   OH241898   1.150   1.884   3.128 -0.5211 -0.0911  0.3538
 6780TIP3    H141899   1.063   1.892   3.088  0.0456 -1.5614 -1.3128
 6780TIP3    H241900   1.140   1.816   3.194 -0.7436  0.0805  0.4982
 6781TIP3   OH241901   6.585   0.099   0.209 -0.3632 -0.0963  0.0699
 6781TIP3    H141902   6.557   0.013   0.175 -1.2866  0.1383  0.1883
 6781TIP3    H241903   6.676   0.108   0.181 -0.4697 -0.8185 -0.5481
 6782TIP3   OH241904   3.633   2.844   0.829 -0.1581 -0.4542 -0.2547
 6782TIP3    H141905   3.560   2.823   0.771  0.7714  0.6696 -1.9114
 6782TIP3    H241906   3.711   2.833   0.774  0.8101  0.0485  0.9731
 6783TIP3   OH241907   1.435   6.378   2.290  0.2427  0.3906  0.2963
 6783TIP3    H141908   1.423   6.422   2.373  1.7008 -0.0006  0.7436
 6783TIP3    H241909   1.347   6.370   2.253 -0.1200  3.5135  0.2398
 6784TIP3   OH241910   1.368   1.341   2.009  0.2120  0.3008  0.2870
 6784TIP3    H141911   1.290   1.392   1.988  0.0788 -0.4877 -1.3704
 6784TIP3    H241912   1.344   1.251   1.986  0.7454 -0.3845  2.2613
 6785TIP3   OH241913   4.008   3.484   3.768  0.0523  0.1412  1.5680
 6785TIP3    H141914   4.086   3.483   3.713 -0.4987  0.4799  0.7627
 6785TIP3    H241915   3.949   3.420   3.729 -0.5201  0.7028  1.4847
 6786TIP3   OH241916   2.152   5.027   7.443 -0.6935  0.0142 -0.5932
 6786TIP3    H141917   2.214   5.099   7.431 -0.5850  0.4243  1.8872
 6786TIP3    H241918   2.066   5.067   7.432 -0.6558  0.7144  1.3828
 6787TIP3   OH241919   2.771   5.329   0.427  0.6998 -0.0890  0.5869
 6787TIP3    H141920   2.797   5.421   0.434  0.5173  0.0331 -0.2514
 6787TIP3    H241921   2.680   5.327   0.457 -0.2389  0.5124 -1.9870
 6788TIP3   OH241922   2.699   3.424   1.284  0.4391  0.0092 -0.2125
 6788TIP3    H141923   2.729   3.433   1.194  0.4318 -0.5996 -0.2809
 6788TIP3    H241924   2.719   3.333   1.307  1.0703  0.3458  0.6266
 6789TIP3   OH241925   5.571   5.393   2.654 -0.2116 -1.3509 -0.4497
 6789TIP3    H141926   5.545   5.484   2.636 -2.1917 -1.3705  1.9028
 6789TIP3    H241927   5.641   5.401   2.719 -1.0841 -1.5167  0.5188
 6790TIP3   OH241928   2.590   3.561   6.986 -0.6543  0.8246 -0.2757
 6790TIP3    H141929   2.497   3.580   6.971 -0.5702  1.6688  0.1753
 6790TIP3    H241930   2.629   3.647   7.003  0.1096  0.4200  0.0732
 6791TIP3   OH241931   0.399   2.243   2.232  0.1279 -0.7087 -0.0597
 6791TIP3    H141932   0.335   2.242   2.302 -1.6699  2.3057 -1.4471
 6791TIP3    H241933   0.460   2.314   2.255  1.7918 -2.1438  0.1991
 6792TIP3   OH241934   1.020   1.077   1.035  0.1724  0.3220 -0.0573
 6792TIP3    H141935   1.030   1.154   1.092 -0.8950  0.8733 -0.5871
 6792TIP3    H241936   1.106   1.034   1.037  1.0728  2.0128 -0.4461
 6793TIP3   OH241937   3.606   3.856   0.608  0.8207  0.2759 -0.3187
 6793TIP3    H141938   3.552   3.855   0.529  0.6248 -0.6293 -0.1849
 6793TIP3    H241939   3.560   3.914   0.668 -0.0261 -0.4810 -0.2039
 6794TIP3   OH241940   0.738   3.800   7.661  0.0054 -0.1460 -0.1817
 6794TIP3    H141941   0.728   3.857   7.737 -0.5700  2.8107 -2.2967
 6794TIP3    H241942   0.694   3.847   7.590 -1.3067 -3.6867 -1.9616
 6795TIP3   OH241943   3.241   4.428   2.269  0.3831  0.2961  0.4569
 6795TIP3    H141944   3.319   4.434   2.323  1.2721 -0.7073 -0.6593
 6795TIP3    H241945   3.201   4.345   2.293  0.4719  0.1142 -0.0150
 6796TIP3   OH241946   2.495   2.089   3.450  0.6865 -0.5940  0.1769
 6796TIP3    H141947   2.436   2.144   3.398  1.6684  1.6555  1.2927
 6796TIP3    H241948   2.583   2.116   3.423  1.2621  1.3649  3.5008
 6797TIP3   OH241949   0.985   2.913   8.320 -0.4530 -0.0822 -0.5620
 6797TIP3    H141950   1.074   2.929   8.288 -0.6752 -1.1134 -1.7965
 6797TIP3    H241951   0.929   2.967   8.264 -0.6271  0.5533  0.2005
 6798TIP3   OH241952   0.508   6.109   7.727  0.7784  0.0775  0.4117
 6798TIP3    H141953   0.593   6.150   7.712  1.9705 -0.7780  3.8793
 6798TIP3    H241954   0.527   6.015   7.732 -0.7620 -0.3331 -0.7625
 6799TIP3   OH241955   1.574   5.701   8.333 -0.4599 -0.6172  0.3399
 6799TIP3    H141956   1.608   5.725   8.247 -1.8424  2.4465  0.5114
 6799TIP3    H241957   1.633   5.745   8.395 -1.4033  0.0140  0.8144
 6800TIP3   OH241958   1.786   1.758   3.377  0.1122 -0.5765  0.1694
 6800TIP3    H141959   1.799   1.807   3.296  1.1667  2.0717  1.8085
 6800TIP3    H241960   1.868   1.712   3.391  0.1175 -0.6188  0.0005
 6801TIP3   OH241961   0.599   3.686   1.101  0.4675  0.3032  0.5716
 6801TIP3    H141962   0.689   3.719   1.095  1.7075 -2.9401 -0.9201
 6801TIP3    H241963   0.605   3.609   1.157 -0.4979 -2.2278 -2.4997
 6802TIP3   OH241964   3.912   6.371   3.235  0.1619 -0.3672 -0.4428
 6802TIP3    H141965   3.984   6.434   3.230 -0.9118  0.8583 -1.2833
 6802TIP3    H241966   3.840   6.420   3.276 -0.4401 -1.3321 -0.2939
 6803TIP3   OH241967   4.855   1.872   7.895  0.5162  0.0131  0.5166
 6803TIP3    H141968   4.805   1.876   7.976  0.3795 -0.4489  0.4584
 6803TIP3    H241969   4.923   1.807   7.912 -0.5467 -1.3797 -0.2954
 6804TIP3   OH241970   4.010   2.186   2.167  0.3596 -0.2935 -0.1132
 6804TIP3    H141971   3.994   2.137   2.247 -0.8176  0.0928 -0.0937
 6804TIP3    H241972   3.959   2.266   2.178 -0.7701 -0.7512 -1.7429
 6805TIP3   OH241973   1.036   1.757   8.895 -0.0879 -0.0165  0.7700
 6805TIP3    H141974   0.967   1.792   8.838 -0.9802 -0.8501  1.3071
 6805TIP3    H241975   1.106   1.731   8.835 -0.6506 -0.0585  0.1212
 6806TIP3   OH241976   0.852   2.108   2.817  0.1829  0.6269 -0.3664
 6806TIP3    H141977   0.906   2.137   2.744 -0.8653 -0.6416 -1.6836
 6806TIP3    H241978   0.770   2.155   2.806 -0.0195  0.3466 -0.0569
 6807TIP3   OH241979   1.828   1.013   1.564  0.2954  0.1491 -0.3868
 6807TIP3    H141980   1.922   0.995   1.569  0.2011 -0.4118 -0.4818
 6807TIP3    H241981   1.802   1.030   1.654  0.4530  0.1160 -0.3347
 6808TIP3   OH241982   3.547   2.673   8.713 -0.4413 -0.2942 -0.3567
 6808TIP3    H141983   3.500   2.714   8.640  1.3018  0.6870 -0.9640
 6808TIP3    H241984   3.630   2.646   8.676  0.1411 -0.5519  1.0792
 6809TIP3   OH241985   4.557   1.651   8.691 -0.0910  0.2126  0.0440
 6809TIP3    H141986   4.640   1.676   8.650 -0.2088  0.9022  0.2060
 6809TIP3    H241987   4.514   1.596   8.625 -0.7496  2.1692 -1.2649
 6810TIP3   OH241988   3.285   0.600   8.314  0.2336  0.3402  0.8175
 6810TIP3    H141989   3.228   0.645   8.376  0.3318  0.9746  0.4518
 6810TIP3    H241990   3.369   0.646   8.320 -0.2381  1.5697 -1.0408
 6811TIP3   OH241991   0.922   5.808   0.512 -0.0780  0.0728 -0.0521
 6811TIP3    H141992   0.916   5.747   0.438  3.3549 -0.1076 -0.3533
 6811TIP3    H241993   0.953   5.753   0.584  0.2782  0.9293  0.4537
 6812TIP3   OH241994   0.447   6.485   1.057 -0.7731 -0.2209 -0.2489
 6812TIP3    H141995   0.485   6.422   1.117 -1.4737 -0.0431  0.4074
 6812TIP3    H241996   0.495   6.474   0.975  1.1718  0.4903  0.7289
 6813TIP3   OH241997   1.632   0.482   7.316  0.5811  0.3413  0.1072
 6813TIP3    H141998   1.607   0.569   7.348 -0.9507 -0.9748  2.8551
 6813TIP3    H241999   1.711   0.460   7.367 -1.2886 -1.3530  2.5259
 6814TIP3   OH242000   0.634   6.351   0.408 -0.3728  0.3298  0.3163
 6814TIP3    H142001   0.686   6.429   0.389 -1.3645  1.3583  1.5907
 6814TIP3    H242002   0.645   6.337   0.502 -0.6293 -0.7664  0.1922
 6815TIP3   OH242003   1.802   1.832   2.724 -0.2154  0.8039 -0.0053
 6815TIP3    H142004   1.755   1.915   2.730 -3.6258 -0.6421 -3.1323
 6815TIP3    H242005   1.744   1.768   2.765  1.0263 -0.4883 -0.1502
 6816TIP3   OH242006   5.444   5.749   6.867  0.5887  0.1528 -0.4817
 6816TIP3    H142007   5.438   5.820   6.932 -1.0854  1.4991 -1.9894
 6816TIP3    H242008   5.384   5.682   6.899 -1.1716  1.3293 -1.1699
 6817TIP3   OH242009   4.502   6.518   8.271  0.1499 -0.1529  0.2971
 6817TIP3    H142010   4.501   6.537   8.365 -1.8846  2.3889 -0.1074
 6817TIP3    H242011   4.481   6.425   8.265  0.6011 -0.4405  2.3438
 6818TIP3   OH242012   5.188   0.755   1.387 -0.0005 -0.5437  0.3680
 6818TIP3    H142013   5.125   0.825   1.402  2.3899  1.5955  1.2118
 6818TIP3    H242014   5.168   0.722   1.299 -1.8782  0.4142  0.3931
 6819TIP3   OH242015   3.208   3.510   3.096  0.5051  0.1060 -0.0691
 6819TIP3    H142016   3.258   3.589   3.074  3.9872 -1.7292  0.5374
 6819TIP3    H242017   3.218   3.501   3.191 -1.2466 -0.2458  0.1178
 6820TIP3   OH242018   3.395   6.183   0.543 -0.2608 -0.1579 -0.0286
 6820TIP3    H142019   3.489   6.189   0.522 -0.6568  0.4868 -1.7273
 6820TIP3    H242020   3.352   6.240   0.480 -1.8310 -0.5400  0.6437
 6821TIP3   OH242021   4.269   0.458   0.932 -0.2272 -0.3680  0.2804
 6821TIP3    H142022   4.249   0.373   0.971  1.6034 -0.6305  0.7535
 6821TIP3    H242023   4.347   0.442   0.879  0.0111  0.9705  0.1949
 6822TIP3   OH242024   3.776   0.623   8.211 -0.6282  0.2734  0.5148
 6822TIP3    H142025   3.849   0.684   8.199  0.2376 -0.3859  2.1080
 6822TIP3    H242026   3.738   0.614   8.124  2.7954 -1.3837 -1.0075
 6823TIP3   OH242027   0.140   4.138   0.374 -0.2827 -0.1066 -0.0075
 6823TIP3    H142028   0.071   4.203   0.383 -0.7889 -0.5429 -0.6702
 6823TIP3    H242029   0.221   4.189   0.380 -0.6674  0.6564 -0.8744
 6824TIP3   OH242030   5.081   3.636   8.831 -0.1026 -0.0295  0.0605
 6824TIP3    H142031   5.136   3.569   8.790 -0.7732 -0.1967 -0.5795
 6824TIP3    H242032   4.998   3.630   8.785 -0.6636  0.2310  1.0146
 6825TIP3   OH242033   3.469   3.290   3.614  0.2932  0.2454  0.2285
 6825TIP3    H142034   3.517   3.235   3.676  1.1929  0.6600 -0.0744
 6825TIP3    H242035   3.511   3.376   3.621  1.7214 -0.1431 -2.2969
 6826TIP3   OH242036   2.116   0.241   2.815 -0.5100 -0.3144  0.2780
 6826TIP3    H142037   2.127   0.200   2.729 -0.6434 -0.6439  0.4134
 6826TIP3    H242038   2.021   0.254   2.823 -0.4764 -0.0665  0.2767
 6827TIP3   OH242039   4.724   1.245   2.706 -0.0222  0.3359  0.3656
 6827TIP3    H142040   4.665   1.319   2.694  1.8665  1.5128 -2.9229
 6827TIP3    H242041   4.668   1.168   2.700 -1.3115  1.3915 -3.0491
 6828TIP3   OH242042   6.511   3.959   1.396  0.3128 -0.8778 -0.2842
 6828TIP3    H142043   6.420   3.938   1.415  0.2576  0.6911  1.4582
 6828TIP3    H242044   6.559   3.932   1.475  0.6742  2.3066  0.7138
 6829TIP3   OH242045   4.331   3.668   0.209 -0.0201 -0.1912 -0.1551
 6829TIP3    H142046   4.407   3.629   0.167 -0.4713 -0.7709 -0.4470
 6829TIP3    H242047   4.318   3.751   0.163 -0.0493 -0.4626 -0.6387
 6830TIP3   OH242048   1.640   4.565   1.602  0.0217  0.0181 -0.1105
 6830TIP3    H142049   1.596   4.559   1.687  0.9709  0.6154  0.4314
 6830TIP3    H242050   1.727   4.529   1.618  1.2455  2.7918 -0.0756
 6831TIP3   OH242051   4.070   4.100   2.406 -0.1253 -0.0309  0.0010
 6831TIP3    H142052   4.017   4.152   2.345 -0.4244 -3.3604 -2.8990
 6831TIP3    H242053   4.160   4.127   2.388 -0.3030 -0.0525 -0.9664
 6832TIP3   OH242054   2.131   3.936   0.730  0.7500  0.2434 -0.2819
 6832TIP3    H142055   2.135   3.961   0.638 -0.3324 -2.1743 -1.0765
 6832TIP3    H242056   2.209   3.882   0.744  1.0746  0.8589  0.3196
 6833TIP3   OH242057   4.490   3.682   8.200  0.6780 -0.4068  0.1815
 6833TIP3    H142058   4.584   3.673   8.216  1.2534  0.8156 -2.1007
 6833TIP3    H242059   4.480   3.665   8.106 -1.4121 -0.6509  0.4019
 6834TIP3   OH242060   5.061   3.617   2.959 -0.2213 -0.3128  0.7658
 6834TIP3    H142061   5.088   3.580   3.043 -0.8287 -0.3005  0.9711
 6834TIP3    H242062   5.007   3.549   2.919  0.3971 -0.4804  0.1978
 6835TIP3   OH242063   4.328   3.310   2.689 -0.5134  0.2018  0.0896
 6835TIP3    H142064   4.382   3.338   2.615  0.0214  0.5485  0.6065
 6835TIP3    H242065   4.318   3.216   2.676  1.0285 -0.0529  0.4897
 6836TIP3   OH242066   6.106   3.353   1.168 -0.7971  0.4821  0.5810
 6836TIP3    H142067   6.029   3.332   1.116 -0.9674 -0.4845  1.1959
 6836TIP3    H242068   6.175   3.370   1.103 -1.1744 -0.0369  0.0374
 6837TIP3   OH242069   5.201   3.698   8.461 -0.0753  0.3217  0.3980
 6837TIP3    H142070   5.237   3.721   8.375  0.6833 -2.9153 -0.2651
 6837TIP3    H242071   5.110   3.728   8.458  0.1484  0.9092 -1.2476
 6838TIP3   OH242072   3.266   2.439   0.714 -0.1929  0.2159 -0.5947
 6838TIP3    H142073   3.333   2.404   0.654 -0.1534 -0.8390  0.0514
 6838TIP3    H242074   3.183   2.406   0.679 -0.2129 -0.0015 -0.3377
 6839TIP3   OH242075   0.268   0.171   2.292  0.9855  0.0100 -0.0522
 6839TIP3    H142076   0.236   0.083   2.272 -0.7300  1.0840 -2.5424
 6839TIP3    H242077   0.222   0.195   2.373 -0.2179 -0.6175 -0.5155
 6840TIP3   OH242078   0.496   0.289   7.737  0.1035 -0.2719  0.4166
 6840TIP3    H142079   0.401   0.295   7.736  0.1666  1.2899 -0.4150
 6840TIP3    H242080   0.524   0.367   7.785  0.9801  0.2580 -0.8921
 6841TIP3   OH242081   4.114   4.956   8.625  0.0139 -0.0065  0.2428
 6841TIP3    H142082   4.073   4.995   8.548  1.1368 -0.3618 -0.5589
 6841TIP3    H242083   4.045   4.958   8.692 -1.4612 -1.0129 -1.1672
 6842TIP3   OH242084   2.417   3.404   2.662  0.2496 -0.1564  0.0776
 6842TIP3    H142085   2.487   3.387   2.725 -0.1193 -0.0262  0.5235
 6842TIP3    H242086   2.396   3.496   2.675 -0.8967 -0.5143  0.8560
 6843TIP3   OH242087   3.666   2.969   1.752 -0.1400 -0.0746 -0.0181
 6843TIP3    H142088   3.701   2.964   1.841  0.2173 -0.5634 -0.1748
 6843TIP3    H242089   3.727   3.026   1.706  2.5077 -3.4299 -1.1457
 6844TIP3   OH242090   6.558   3.071   8.906  0.8084  0.2198 -0.6320
 6844TIP3    H142091   6.535   3.134   8.837  1.2913  2.6268  1.2524
 6844TIP3    H242092   6.507   3.099   8.982  0.4680 -2.1975  0.1136
 6845TIP3   OH242093   5.382   0.286   2.990 -0.3304 -0.2427  0.7608
 6845TIP3    H142094   5.369   0.370   3.035 -0.8287 -0.8401  1.7650
 6845TIP3    H242095   5.441   0.307   2.918 -0.3244  0.9461  1.0833
 6846TIP3   OH242096   1.773   0.844   0.049 -0.9851 -0.4625  0.4619
 6846TIP3    H142097   1.745   0.924   0.093 -0.1925 -0.0412  0.2193
 6846TIP3    H242098   1.714   0.836  -0.026 -0.0740  0.7736 -0.4258
 6847TIP3   OH242099   4.571   2.537   3.052  0.4383  0.6043 -0.2465
 6847TIP3    H142100   4.594   2.449   3.021 -2.4223 -0.0392 -0.9105
 6847TIP3    H242101   4.529   2.522   3.137  0.5533  1.3981 -0.0438
 6848TIP3   OH242102   2.623   4.066   8.063  0.2314 -0.0728 -0.7330
 6848TIP3    H142103   2.561   4.050   7.992 -0.6966 -0.0513  0.0454
 6848TIP3    H242104   2.599   4.002   8.130  0.4419  0.5584 -0.0383
 6849TIP3   OH242105   4.821   1.735   1.919 -0.0981 -0.0636 -0.2298
 6849TIP3    H142106   4.804   1.692   2.003 -0.2645 -0.1562 -0.3119
 6849TIP3    H242107   4.759   1.809   1.917  0.5710  0.5269  0.1663
 6850TIP3   OH242108   1.298   1.666   8.427 -0.2263  0.6589 -0.3761
 6850TIP3    H142109   1.329   1.621   8.349 -1.4865 -0.4458 -0.2787
 6850TIP3    H242110   1.360   1.737   8.440  0.5049  0.3308 -1.8696
 6851TIP3   OH242111   4.729   5.474   0.885  0.6242 -0.1398 -0.3548
 6851TIP3    H142112   4.672   5.404   0.917 -1.5536  1.0467 -1.3675
 6851TIP3    H242113   4.816   5.435   0.879  0.0573 -1.9018  1.7775
 6852TIP3   OH242114   5.918   2.899   1.790  0.4842 -0.6236 -0.1434
 6852TIP3    H142115   5.942   2.889   1.882  0.7546 -1.2085 -0.2717
 6852TIP3    H242116   5.908   2.809   1.758  2.4747 -0.5242 -1.2184
 6853TIP3   OH242117   3.049   3.157   8.460 -0.7478 -0.3300  0.1890
 6853TIP3    H142118   2.967   3.200   8.433  0.2436  1.3226 -0.3794
 6853TIP3    H242119   3.046   3.071   8.417 -2.0582 -0.1958 -0.0368
 6854TIP3   OH242120   1.289   2.401   7.270 -0.6119 -0.1534  0.6066
 6854TIP3    H142121   1.343   2.322   7.281 -0.8354 -0.0276  3.2383
 6854TIP3    H242122   1.209   2.370   7.227  0.0918 -0.9847 -0.1361
 6855TIP3   OH242123   1.011   0.405   0.113  0.1996  0.0096  0.0829
 6855TIP3    H142124   0.965   0.477   0.157 -0.0592 -0.3063  0.3329
 6855TIP3    H242125   1.103   0.418   0.135  0.5015  1.6526 -1.8120
 6856TIP3   OH242126   5.922   0.323   1.047  0.0304 -0.2422  0.2793
 6856TIP3    H142127   5.996   0.345   0.990  0.4535 -0.8359  0.5943
 6856TIP3    H242128   5.846   0.329   0.990  0.4118 -0.4871 -0.2684
 6857TIP3   OH242129   0.072   5.080   2.274 -0.6043  0.1893 -0.7341
 6857TIP3    H142130   0.074   5.174   2.291  0.8943 -0.0361  0.4322
 6857TIP3    H242131   0.007   5.070   2.204 -1.4926  1.9717 -0.2132
 6858TIP3   OH242132   3.704   3.285   7.477 -0.4651  0.5433  0.0726
 6858TIP3    H142133   3.615   3.256   7.497 -0.6753  1.0600 -0.1027
 6858TIP3    H242134   3.754   3.265   7.556 -0.3342 -1.3556 -0.4485
 6859TIP3   OH242135   5.997   3.510   8.792 -0.3105 -0.0844  0.1195
 6859TIP3    H142136   5.951   3.511   8.876 -0.8299 -0.2192 -0.1643
 6859TIP3    H242137   5.947   3.570   8.737 -1.7466 -2.2618 -1.0446
 6860TIP3   OH242138   5.010   6.639   1.627 -0.2170  0.1641 -0.0792
 6860TIP3    H142139   5.091   6.591   1.612  0.2452  0.7174  0.5408
 6860TIP3    H242140   4.992   6.627   1.720 -1.1687 -0.4266 -0.3273
 6861TIP3   OH242141   4.969   1.442   8.307 -0.2565  0.0729 -0.4482
 6861TIP3    H142142   5.036   1.461   8.372 -0.1922 -0.3704 -0.3808
 6861TIP3    H242143   4.951   1.348   8.318  0.4168 -0.2145 -1.6837
 6862TIP3   OH242144   3.313   2.339   0.031 -0.0682  0.1581 -0.4430
 6862TIP3    H142145   3.368   2.411   0.001  0.0841 -0.2441 -1.1550
 6862TIP3    H242146   3.372   2.264   0.037 -0.5021 -0.2501 -1.1093
 6863TIP3   OH242147   1.507   0.542   0.229  0.2399 -0.5537 -0.3594
 6863TIP3    H142148   1.491   0.566   0.321 -0.4726  0.3194 -0.6969
 6863TIP3    H242149   1.437   0.481   0.208  0.9989 -1.5736 -0.0419
 6864TIP3   OH242150   2.636   3.887   8.903  0.3454 -0.7629  0.2609
 6864TIP3    H142151   2.658   3.978   8.885  0.6875 -0.8000  0.4835
 6864TIP3    H242152   2.543   3.889   8.926 -0.2097 -0.7578 -1.7804
 6865TIP3   OH242153   1.538   4.374   0.770  0.1423 -0.3561  0.1220
 6865TIP3    H142154   1.615   4.348   0.821  0.9696 -0.0075 -0.9303
 6865TIP3    H242155   1.567   4.449   0.718 -0.3068 -1.4179 -1.7505
 6866TIP3   OH242156   2.899   2.118   1.379 -0.2841 -0.3196  0.6259
 6866TIP3    H142157   2.870   2.131   1.469  0.0739  1.7538  0.4915
 6866TIP3    H242158   2.970   2.181   1.367 -2.1641  1.5527 -1.9023
 6867TIP3   OH242159   3.802   1.260   0.788 -0.0640  0.4469 -0.0562
 6867TIP3    H142160   3.775   1.309   0.711  1.7589  1.4255 -0.1364
 6867TIP3    H242161   3.857   1.322   0.837 -0.3361 -0.4924  1.4991
 6868TIP3   OH242162   6.680   1.867   8.405 -0.3814  0.2629  0.0575
 6868TIP3    H142163   6.700   1.843   8.315 -1.6186 -1.2193  0.1504
 6868TIP3    H242164   6.621   1.942   8.398  0.2946  0.7739 -0.3188
 6869TIP3   OH242165   2.319   3.732   0.290 -0.0915  0.0087  0.6277
 6869TIP3    H142166   2.359   3.649   0.262 -1.1126  0.1383 -1.3767
 6869TIP3    H242167   2.266   3.709   0.366  0.9934 -0.8264  1.1628
 6870TIP3   OH242168   6.460   5.985   8.120  0.1529 -0.2727 -0.3731
 6870TIP3    H142169   6.372   5.948   8.116  0.0524 -0.0292 -0.4027
 6870TIP3    H242170   6.464   6.047   8.047  0.1101  0.2396  0.0547
 6871TIP3   OH242171   5.499   2.495   7.978  0.3975  0.2004  0.5321
 6871TIP3    H142172   5.411   2.532   7.976  0.3247  0.0006 -0.5266
 6871TIP3    H242173   5.509   2.460   8.067 -0.4110  0.6303  0.8000
 6872TIP3   OH242174   0.826   4.170   1.187  0.3075 -0.2542  0.2489
 6872TIP3    H142175   0.827   4.162   1.091  0.1624  2.5114 -0.0802
 6872TIP3    H242176   0.770   4.098   1.217 -0.4109 -0.6334 -1.8241
 6873TIP3   OH242177   4.336   5.366   1.509 -0.4848  0.1531 -0.3514
 6873TIP3    H142178   4.271   5.433   1.489  1.0089  1.8558  0.1823
 6873TIP3    H242179   4.295   5.311   1.575 -1.9993  0.1181 -1.2794
 6874TIP3   OH242180   2.051   5.947   8.347  0.0746 -0.3666 -0.1232
 6874TIP3    H142181   1.973   6.000   8.361 -0.0228 -0.3928 -0.5377
 6874TIP3    H242182   2.122   6.010   8.341  0.0056 -0.3019 -0.2849
 6875TIP3   OH242183   2.911   2.759   2.108 -0.0640 -0.2124 -0.0783
 6875TIP3    H142184   2.943   2.797   2.026  2.2232 -0.4047  0.6471
 6875TIP3    H242185   2.962   2.679   2.119 -1.0690 -0.7227  1.0296
 6876TIP3   OH242186   2.533   6.032   8.716 -0.2795  0.3789 -0.6696
 6876TIP3    H142187   2.498   6.070   8.796 -2.8662  0.5459 -1.7728
 6876TIP3    H242188   2.624   6.061   8.713 -0.9352  2.8906  0.6902
 6877TIP3   OH242189   4.088   5.378   0.406 -0.0132  0.2683 -0.6380
 6877TIP3    H142190   4.055   5.424   0.329  1.2979  0.0672 -1.3542
 6877TIP3    H242191   4.144   5.442   0.450 -2.1324  1.0012  1.2037
 6878TIP3   OH242192   6.086   5.665   0.185 -0.4175 -0.3246 -0.1955
 6878TIP3    H142193   6.154   5.720   0.146 -0.8623 -0.3027 -0.9712
 6878TIP3    H242194   6.087   5.688   0.278  1.6085 -1.3819  0.0861
 6879TIP3   OH242195   4.305   4.211   2.685  0.3260  0.2136  0.0984
 6879TIP3    H142196   4.354   4.134   2.715 -0.3361  0.1205  1.0147
 6879TIP3    H242197   4.300   4.201   2.590 -0.0887 -1.0975  0.2392
 6880TIP3   OH242198   2.587   1.391   2.281  0.2657  0.0852 -0.4110
 6880TIP3    H142199   2.675   1.401   2.243  0.2580 -1.0664 -0.7676
 6880TIP3    H242200   2.585   1.300   2.312 -0.2597  0.5629  1.0128
 6881TIP3   OH242201   2.202   0.654   8.623 -0.1414 -0.0667 -0.0340
 6881TIP3    H142202   2.261   0.720   8.660 -1.1510 -0.5527  2.6882
 6881TIP3    H242203   2.115   0.678   8.655 -1.1653 -0.5334 -2.2767
 6882TIP3   OH242204   3.239   1.649   2.558  0.1270  0.1723  0.1753
 6882TIP3    H142205   3.231   1.700   2.477  0.4203  1.1329  0.7299
 6882TIP3    H242206   3.328   1.667   2.588 -0.3464  0.7498  1.2946
 6883TIP3   OH242207   1.556   2.712   1.330  0.0539  0.3212 -0.3607
 6883TIP3    H142208   1.492   2.646   1.304  0.0647 -1.0496  2.6014
 6883TIP3    H242209   1.592   2.745   1.248 -0.3672 -2.9622 -2.0245
 6884TIP3   OH242210   3.389   5.681   0.725 -0.1943  0.2364  0.3991
 6884TIP3    H142211   3.318   5.671   0.663 -0.1468 -0.9129  0.5055
 6884TIP3    H242212   3.376   5.610   0.789  1.3142 -0.3254  0.1334
 6885TIP3   OH242213   3.323   2.796   8.077 -0.1457 -0.8192 -0.0920
 6885TIP3    H142214   3.370   2.874   8.106 -2.0774  0.5509 -0.4005
 6885TIP3    H242215   3.358   2.725   8.131  1.5685  0.2640  0.3029
 6886TIP3   OH242216   6.334   1.876   1.781  0.5787 -0.6754 -0.6165
 6886TIP3    H142217   6.241   1.853   1.787  0.2413  0.7043 -0.0706
 6886TIP3    H242218   6.360   1.850   1.693 -0.5028 -0.4727 -1.0082
 6887TIP3   OH242219   5.692   6.286   2.491 -0.8087 -0.5489 -0.5051
 6887TIP3    H142220   5.685   6.191   2.490 -0.4105 -0.5900 -2.1401
 6887TIP3    H242221   5.748   6.306   2.566 -1.5674 -1.5317  0.3473
 6888TIP3   OH242222   3.501   3.416   2.946 -0.1640  0.1585 -0.4992
 6888TIP3    H142223   3.459   3.391   3.028  1.4907  0.9881  0.6472
 6888TIP3    H242224   3.486   3.341   2.888 -0.9917 -0.6247  0.6828
 6889TIP3   OH242225   5.929   4.645   0.579 -0.5369 -0.1702 -0.5323
 6889TIP3    H142226   5.975   4.652   0.663 -0.5685  0.7655 -0.5810
 6889TIP3    H242227   5.976   4.577   0.532 -0.2118 -0.3621  0.0577
 6890TIP3   OH242228   3.509   1.666   2.609 -0.0804 -0.3161 -0.5426
 6890TIP3    H142229   3.530   1.759   2.605  0.0076 -0.2240  1.1950
 6890TIP3    H242230   3.553   1.628   2.533  0.5352  0.9375 -0.8380
 6891TIP3   OH242231   6.763   5.633   8.619  0.1619 -0.3194  0.1608
 6891TIP3    H142232   6.824   5.609   8.689  0.6860 -0.6760 -0.4072
 6891TIP3    H242233   6.746   5.726   8.634  0.9932 -0.1661  0.2307
 6892TIP3   OH242234   1.093   4.420   2.356  0.0348 -0.5221 -0.3381
 6892TIP3    H142235   1.006   4.398   2.322  0.0740 -0.1181 -0.7100
 6892TIP3    H242236   1.091   4.515   2.369  0.2449 -0.5814  0.1638
 6893TIP3   OH242237   0.759   3.538   2.369 -0.4373 -0.5264 -0.3640
 6893TIP3    H142238   0.829   3.518   2.430 -0.2456 -0.8258 -0.6774
 6893TIP3    H242239   0.781   3.623   2.333 -0.5143 -0.3812 -0.0684
 6894TIP3   OH242240   1.184   0.756   1.598 -0.1675  0.0976  0.4705
 6894TIP3    H142241   1.265   0.714   1.565 -0.6927 -0.3809 -0.2531
 6894TIP3    H242242   1.214   0.836   1.641  0.6415  0.3098 -0.4478
 6895TIP3   OH242243   0.948   3.337   1.355  0.3630  0.3588  0.4622
 6895TIP3    H142244   0.905   3.283   1.288  1.0757  0.3969 -0.0413
 6895TIP3    H242245   1.008   3.276   1.399  1.7349  0.8971 -0.6210
 6896TIP3   OH242246   3.367   6.173   1.320  0.0619 -0.3651  0.4472
 6896TIP3    H142247   3.308   6.105   1.352 -0.6099  0.3298  0.7156
 6896TIP3    H242248   3.454   6.138   1.335 -0.2758 -1.7776 -0.7544
 6897TIP3   OH242249   6.614   2.569   1.101  0.3365 -0.1726 -0.3174
 6897TIP3    H142250   6.608   2.660   1.130  0.8052  0.1791 -1.2936
 6897TIP3    H242251   6.523   2.540   1.093  0.1701  0.4186 -0.6179
 6898TIP3   OH242252   4.838   5.473   7.330  0.5205  0.3875  0.1011
 6898TIP3    H142253   4.806   5.390   7.293  2.5278 -0.4193  0.0572
 6898TIP3    H242254   4.764   5.506   7.381  0.0332 -2.0230  1.0982
 6899TIP3   OH242255   0.162   3.424   1.900  0.1934  0.2688  0.9478
 6899TIP3    H142256   0.165   3.496   1.838  0.0633 -0.2126  0.3809
 6899TIP3    H242257   0.139   3.465   1.984 -0.2218  0.8353  0.5569
 6900TIP3   OH242258   1.742   2.350   0.981 -0.0294 -0.7156  0.4424
 6900TIP3    H142259   1.700   2.416   0.925  3.6172  0.9847 -0.5924
 6900TIP3    H242260   1.709   2.267   0.947 -0.2446  0.3736 -2.3486
 6901TIP3   OH242261   6.441   2.627   8.882 -0.0283 -0.1569 -0.1627
 6901TIP3    H142262   6.386   2.705   8.877 -0.8758 -0.6448  1.2304
 6901TIP3    H242263   6.391   2.559   8.837  0.0939 -0.2454 -0.1646
 6902TIP3   OH242264   5.537   4.652   0.725 -0.2985 -0.2422 -0.1549
 6902TIP3    H142265   5.460   4.638   0.670 -0.2859  2.4914 -1.0051
 6902TIP3    H242266   5.521   4.596   0.802 -4.0034  1.3539  0.4829
 6903TIP3   OH242267   1.565   1.089   0.503 -0.0755 -0.3479  0.1321
 6903TIP3    H142268   1.566   1.082   0.598 -0.5311  0.0846  0.1699
 6903TIP3    H242269   1.479   1.126   0.482 -0.0384 -0.5784 -0.4563
 6904TIP3   OH242270   3.243   2.294   2.476  0.9558  0.4079  0.1748
 6904TIP3    H142271   3.297   2.353   2.424  2.1080 -2.2246 -1.8816
 6904TIP3    H242272   3.303   2.257   2.540  1.0871 -0.7906 -0.5989
 6905TIP3   OH242273   0.790   6.164   7.733  0.3730 -0.1366  0.1500
 6905TIP3    H142274   0.840   6.201   7.660  1.3105 -0.4830  0.6129
 6905TIP3    H242275   0.826   6.076   7.746  0.4186  0.0230  1.2189
 6906TIP3   OH242276   3.446   4.554   0.076  0.1100 -0.1750  0.5131
 6906TIP3    H142277   3.458   4.642   0.111 -1.2471 -0.4244  1.6872
 6906TIP3    H242278   3.407   4.568  -0.011 -0.8727  0.3893  1.0239
 6907TIP3   OH242279   4.513   4.273   1.697  0.1840 -0.3107  0.2423
 6907TIP3    H142280   4.518   4.344   1.632 -0.7347 -0.3896  0.0713
 6907TIP3    H242281   4.590   4.285   1.751  0.2113  0.6316  0.0163
 6908TIP3   OH242282   1.104   5.713   7.379 -0.5395  0.7314 -0.0972
 6908TIP3    H142283   1.089   5.756   7.295  1.1195 -0.2498 -0.9498
 6908TIP3    H242284   1.196   5.731   7.399 -0.5992  0.0000  0.9456
 6909TIP3   OH242285   6.109   4.427   1.782 -0.3320  0.1415  0.6197
 6909TIP3    H142286   6.096   4.342   1.741  0.0353  0.0693  0.6500
 6909TIP3    H242287   6.162   4.409   1.859 -0.6654  0.3339  0.8976
 6910TIP3   OH242288   1.618   4.674   8.096 -0.9854  0.1880 -0.1469
 6910TIP3    H142289   1.626   4.722   8.178 -1.1236  0.6464 -0.3944
 6910TIP3    H242290   1.530   4.696   8.064 -0.3928  1.2273 -1.1583
 6911TIP3   OH242291   0.331   4.936   1.500  0.5803 -0.3232 -0.0093
 6911TIP3    H142292   0.250   4.889   1.481  1.6145 -2.2426  0.0925
 6911TIP3    H242293   0.327   4.955   1.593 -2.0912  4.4240 -0.7309
 6912TIP3   OH242294   4.520   3.308   2.466  0.2235  0.1389 -0.2142
 6912TIP3    H142295   4.604   3.349   2.444  0.3037  0.5428  0.7976
 6912TIP3    H242296   4.456   3.354   2.411  0.6858 -0.3106 -1.1404
 6913TIP3   OH242297   1.201   5.712   1.056  0.6690 -0.4202 -0.0520
 6913TIP3    H142298   1.114   5.674   1.044  0.9708 -1.0564 -0.2838
 6913TIP3    H242299   1.256   5.666   0.993  1.5392 -1.2718  1.2756
 6914TIP3   OH242300   5.061   0.880   8.706 -0.1512 -0.2771 -0.2702
 6914TIP3    H142301   5.059   0.850   8.797 -0.1718 -1.0136 -0.5084
 6914TIP3    H242302   5.140   0.935   8.701  0.0442 -0.5168  0.1074
 6915TIP3   OH242303   3.067   6.667   7.806 -0.1489 -0.3341  0.1718
 6915TIP3    H142304   3.073   6.573   7.821  0.3869 -0.1900  0.8616
 6915TIP3    H242305   3.106   6.707   7.883 -1.3613  0.4809  0.3946
 6916TIP3   OH242306   2.073   2.696   1.952  0.6215 -0.3421  0.1090
 6916TIP3    H142307   2.118   2.759   2.007  0.0091 -0.7757  1.1439
 6916TIP3    H242308   2.129   2.686   1.875  0.3614  2.0263 -0.4658
 6917TIP3   OH242309   1.452   5.827   8.732  0.0092  0.3552 -0.0594
 6917TIP3    H142310   1.413   5.799   8.815 -1.6907 -1.7104 -1.4398
 6917TIP3    H242311   1.442   5.752   8.674  2.5669  1.1527 -1.7395
 6918TIP3   OH242312   2.849   5.130   2.585 -0.4508  0.5672 -0.0114
 6918TIP3    H142313   2.857   5.056   2.644  0.4424  0.2327 -0.5430
 6918TIP3    H242314   2.789   5.101   2.517 -0.0449  0.3048 -0.2581
 6919TIP3   OH242315   6.244   6.039   1.722 -0.0521  0.0205 -0.8282
 6919TIP3    H142316   6.162   6.084   1.743 -0.8759 -1.8691  0.3107
 6919TIP3    H242317   6.290   6.099   1.663 -1.3713  1.9791  0.0306
 6920TIP3   OH242318   6.400   0.228   1.416 -0.0657 -0.0263  0.0565
 6920TIP3    H142319   6.308   0.224   1.387  0.2094  1.1914 -1.0473
 6920TIP3    H242320   6.404   0.305   1.472  0.3286  0.0530 -0.0825
 6921TIP3   OH242321   5.927   3.107   0.192  0.5779 -0.2736 -0.0302
 6921TIP3    H142322   5.963   3.188   0.228 -0.8496  0.7356 -0.7288
 6921TIP3    H242323   5.846   3.093   0.241 -1.1558  0.8683 -2.3775
 6922TIP3   OH242324   5.349   3.209   7.389 -0.2575 -0.9130  0.5694
 6922TIP3    H142325   5.385   3.196   7.301  1.7708 -2.3589  1.5253
 6922TIP3    H242326   5.400   3.280   7.426  0.5188 -1.8648  1.3667
 6923TIP3   OH242327   5.875   1.350   1.458  0.5558 -0.0900 -0.5879
 6923TIP3    H142328   5.969   1.366   1.458  0.2695  1.9826 -1.5181
 6923TIP3    H242329   5.865   1.261   1.424  2.2060 -0.9040  0.9297
 6924TIP3   OH242330   0.686   0.394   1.717 -0.8519 -0.2148 -0.0013
 6924TIP3    H142331   0.699   0.342   1.796  1.2642 -2.5086 -1.7336
 6924TIP3    H242332   0.696   0.485   1.747  1.2483 -1.0456  2.1620
 6925TIP3   OH242333   3.348   5.526   0.963  0.1005 -0.3191  0.0683
 6925TIP3    H142334   3.429   5.478   0.977 -0.1208 -0.3693  1.2620
 6925TIP3    H242335   3.283   5.459   0.941  0.5129 -0.2113 -1.6533
 6926TIP3   OH242336   1.348   1.393   8.519  0.0030  0.5687 -0.2851
 6926TIP3    H142337   1.267   1.344   8.531  1.8253 -2.4770  0.6505
 6926TIP3    H242338   1.321   1.473   8.475 -3.2639 -1.1321 -1.7223
 6927TIP3   OH242339   6.081   6.566   1.025 -0.3070 -0.0739 -0.2846
 6927TIP3    H142340   6.172   6.589   1.043 -0.5890  0.7485  0.1295
 6927TIP3    H242341   6.084   6.521   0.940  0.5008 -0.2317 -0.1828
 6928TIP3   OH242342   0.470   3.847   8.319 -0.0347 -0.1111 -0.0577
 6928TIP3    H142343   0.514   3.921   8.278  1.0862 -0.9345 -0.4038
 6928TIP3    H242344   0.388   3.838   8.271  0.0586  0.5732 -0.3543
 6929TIP3   OH242345   6.448   5.618   8.270 -0.0095 -0.5619 -0.5381
 6929TIP3    H142346   6.390   5.570   8.211 -1.0662 -0.8666  0.7049
 6929TIP3    H242347   6.399   5.624   8.352  0.7131  1.3410 -0.1949
 6930TIP3   OH242348   1.764   4.796   1.202  0.6755 -0.0310 -0.3494
 6930TIP3    H142349   1.688   4.785   1.260 -0.5490  1.4390 -1.5705
 6930TIP3    H242350   1.758   4.721   1.142  0.9265 -0.5893  0.3055
 6931TIP3   OH242351   4.718   3.018   0.597 -0.7200  0.0093  0.2014
 6931TIP3    H142352   4.761   3.075   0.533 -3.5920  0.6944 -1.2928
 6931TIP3    H242353   4.765   3.034   0.679  1.9825  0.4163 -1.3017
 6932TIP3   OH242354   3.175   1.328   7.866  0.0075  0.4054  0.2471
 6932TIP3    H142355   3.087   1.366   7.861 -0.0257  0.3076  0.0873
 6932TIP3    H242356   3.177   1.263   7.796  0.3051  0.6107  0.0629
 6933TIP3   OH242357   1.123   4.659   1.137 -0.0809 -0.3303  0.1671
 6933TIP3    H142358   1.178   4.600   1.085 -0.3093  0.3919 -0.9171
 6933TIP3    H242359   1.034   4.626   1.123 -0.0131 -1.1090  1.4101
 6934TIP3   OH242360   5.065   5.043   0.181 -0.0805  0.2746 -0.1028
 6934TIP3    H142361   5.159   5.054   0.192 -0.1567  2.0560 -0.9510
 6934TIP3    H242362   5.057   4.972   0.116  0.7016  0.7167 -0.6947
 6935TIP3   OH242363   5.346   0.218   1.753  0.0396  0.1954  0.5621
 6935TIP3    H142364   5.397   0.278   1.808 -1.0855 -0.1009  1.9764
 6935TIP3    H242365   5.339   0.264   1.669  0.0823  1.5974  1.2858
 6936TIP3   OH242366   1.937   1.269   0.842 -0.2383 -0.0391 -0.2903
 6936TIP3    H142367   2.009   1.219   0.880 -0.2712  0.3964  0.3524
 6936TIP3    H242368   1.944   1.252   0.748 -0.7414 -1.8849 -0.0364
 6937TIP3   OH242369   1.228   0.250   8.459  0.0728 -0.0631  0.0338
 6937TIP3    H142370   1.297   0.292   8.409 -1.0027  0.6169 -0.9337
 6937TIP3    H242371   1.151   0.306   8.446 -1.2306 -1.9055 -0.7097
 6938TIP3   OH242372   0.296   1.753   7.529 -0.1435 -0.1824 -0.3193
 6938TIP3    H142373   0.229   1.821   7.533  0.5170  0.5105 -0.6954
 6938TIP3    H242374   0.371   1.789   7.577  0.1449 -0.7252 -0.3474
 6939TIP3   OH242375   0.511   1.728   8.573  0.0651 -0.0426  0.1400
 6939TIP3    H142376   0.473   1.640   8.581  0.4508 -0.2494 -0.2464
 6939TIP3    H242377   0.547   1.731   8.485 -1.9781  1.3399 -0.7193
 6940TIP3   OH242378   5.530   0.823   0.122  0.0402  0.7146  0.0723
 6940TIP3    H142379   5.454   0.816   0.064 -0.3634 -0.1638  0.6668
 6940TIP3    H242380   5.597   0.768   0.082  0.5356  1.8295 -0.6780
 6941TIP3   OH242381   2.816   1.756   0.283 -0.3779 -0.3604  0.2526
 6941TIP3    H142382   2.901   1.775   0.322  0.5049 -2.2070 -0.6529
 6941TIP3    H242383   2.765   1.717   0.354  0.3108 -1.2405  0.2922
 6942TIP3   OH242384   6.368   2.518   2.969  0.0550  0.5777  0.0179
 6942TIP3    H142385   6.421   2.596   2.951  1.1131 -0.2532 -0.6039
 6942TIP3    H242386   6.383   2.499   3.061  0.9852  0.2796 -0.1779
 6943TIP3   OH242387   5.797   1.348   1.948 -0.7790 -0.5742  0.1144
 6943TIP3    H142388   5.738   1.385   2.013 -0.9659 -2.0372  0.8182
 6943TIP3    H242389   5.743   1.341   1.869 -0.8836  0.1583  0.1142
 6944TIP3   OH242390   6.057   6.730   0.178 -0.2259 -0.2665 -0.4921
 6944TIP3    H142391   6.053   6.753   0.085 -0.5481  1.9830  0.0237
 6944TIP3    H242392   6.095   6.807   0.220 -0.4983 -1.0631  1.3012
 6945TIP3   OH242393   1.608   0.442   0.855  0.0037  0.2083  0.6097
 6945TIP3    H142394   1.577   0.518   0.806 -1.0604  0.0853  1.0641
 6945TIP3    H242395   1.528   0.397   0.883  0.6102 -0.8514  0.7073
 6946TIP3   OH242396   1.049   2.392   1.389 -0.7836 -0.5037 -0.0586
 6946TIP3    H142397   1.098   2.451   1.446 -1.1419 -0.0895 -0.1757
 6946TIP3    H242398   0.957   2.414   1.404 -0.8639  0.2649 -1.4730
 6947TIP3   OH242399   0.457   4.046   1.338  0.0549 -0.5100 -0.2911
 6947TIP3    H142400   0.464   4.095   1.256  1.3506 -0.9375 -0.4584
 6947TIP3    H242401   0.371   4.003   1.334 -0.9956  1.4687 -0.2667
 6948TIP3   OH242402   4.737   0.883   2.708 -0.0398  0.0139 -0.2584
 6948TIP3    H142403   4.832   0.875   2.699 -0.0627 -0.8884  0.1398
 6948TIP3    H242404   4.701   0.832   2.636 -0.2864  3.0890 -2.5072
 6949TIP3   OH242405   2.571   2.314   2.270 -0.8460 -0.7640  0.0887
 6949TIP3    H142406   2.612   2.272   2.346  0.1245  0.1138  0.0770
 6949TIP3    H242407   2.563   2.245   2.205 -1.1612 -1.3978  0.7826
 6950TIP3   OH242408   0.768   1.725   2.176  0.1272 -0.1553 -0.2179
 6950TIP3    H142409   0.736   1.736   2.266 -1.3915  0.6129 -0.8151
 6950TIP3    H242410   0.852   1.771   2.174  0.7752 -1.2050  1.0970
 6951TIP3   OH242411   2.090   0.710   2.023 -0.1443  0.2685 -0.5972
 6951TIP3    H142412   2.147   0.634   2.015 -1.5249 -0.8974 -0.0522
 6951TIP3    H242413   2.001   0.673   2.015 -0.8882  1.6411  0.8542
 6952TIP3   OH242414   0.905   1.928   3.010  0.5380  0.6091  0.4129
 6952TIP3    H142415   0.835   1.948   3.073 -0.3736  1.6224 -0.8808
 6952TIP3    H242416   0.891   1.989   2.938  1.5130 -0.5752 -0.8234
 6953TIP3   OH242417   2.956   1.020   0.254  0.4938 -0.5701  0.1029
 6953TIP3    H142418   2.928   1.106   0.222  1.2049 -0.1492  0.5809
 6953TIP3    H242419   2.901   1.004   0.331  1.2415  0.0502  0.7754
 6954TIP3   OH242420   6.454   0.991   2.058  0.1559  0.3452  0.0115
 6954TIP3    H142421   6.519   0.991   2.129  0.2042  0.8551 -0.0297
 6954TIP3    H242422   6.470   1.072   2.010 -0.0599  0.1383 -0.4207
 6955TIP3   OH242423   2.551   0.658   1.184 -0.0794 -0.1521  0.3340
 6955TIP3    H142424   2.474   0.637   1.132  0.5318  0.7091 -0.9757
 6955TIP3    H242425   2.589   0.735   1.141  0.9643  0.0396  1.5291
 6956TIP3   OH242426   1.079   6.510   8.790  0.4423  0.2212  0.5208
 6956TIP3    H142427   1.133   6.582   8.824  1.2815  1.2249 -2.6071
 6956TIP3    H242428   1.128   6.431   8.813  2.5738  1.0270 -0.8807
 6957TIP3   OH242429   1.410   4.127   0.272 -0.4489 -0.2681 -0.4376
 6957TIP3    H142430   1.446   4.204   0.316 -0.9960 -0.2878  0.0566
 6957TIP3    H242431   1.487   4.072   0.255  0.0183  0.6071 -1.2615
 6958TIP3   OH242432   2.356   6.538   1.666 -0.3701 -0.3402 -0.3247
 6958TIP3    H142433   2.325   6.628   1.662 -0.7866 -0.4130  0.9684
 6958TIP3    H242434   2.303   6.491   1.601 -0.1665  0.3353 -0.9840
 6959TIP3   OH242435   1.352   3.758   1.148 -0.6053  0.2240  0.2892
 6959TIP3    H142436   1.363   3.852   1.154 -0.2116  0.2527 -0.6498
 6959TIP3    H242437   1.375   3.725   1.235 -1.1276  1.0184  0.7318
 6960TIP3   OH242438   2.502   4.496   0.926  0.7160 -0.3030  0.1623
 6960TIP3    H142439   2.448   4.566   0.962  0.2465 -0.3908 -0.3599
 6960TIP3    H242440   2.442   4.422   0.915  1.4659 -1.2499  1.9490
 6961TIP3   OH242441   6.547   1.450   0.213  0.6745 -0.1466  0.1090
 6961TIP3    H142442   6.606   1.416   0.146 -1.8787  0.2488 -2.5076
 6961TIP3    H242443   6.499   1.373   0.244 -1.8998  0.1937 -2.5546
 6962TIP3   OH242444   0.097   4.325   0.119  0.7551  0.2471 -0.5157
 6962TIP3    H142445   0.081   4.366   0.034  0.7161 -0.4494 -0.8518
 6962TIP3    H242446   0.013   4.285   0.143  0.3090  1.7505  0.6017
 6963TIP3   OH242447   5.650   4.610   3.203 -0.0386 -0.1856  0.2651
 6963TIP3    H142448   5.745   4.609   3.197 -0.0096  1.2709 -0.0101
 6963TIP3    H242449   5.632   4.610   3.297  0.2732  0.3480  0.3329
 6964TIP3   OH242450   0.779   1.127   0.045 -0.5708 -0.1302  0.4976
 6964TIP3    H142451   0.849   1.062   0.053 -0.1336  0.2439 -0.2506
 6964TIP3    H242452   0.788   1.182   0.123 -0.2758 -0.3175  0.5968
 6965TIP3   OH242453   2.323   5.613   7.788  0.2319 -0.2383  0.3113
 6965TIP3    H142454   2.406   5.586   7.748 -0.4890  0.6874 -1.9581
 6965TIP3    H242455   2.320   5.708   7.773 -1.9016 -0.4636 -1.0844
 6966TIP3   OH242456   2.678   3.203   2.118  0.6668  0.4746 -0.0935
 6966TIP3    H142457   2.687   3.296   2.097 -0.3747  0.8687  1.0832
 6966TIP3    H242458   2.661   3.201   2.212  2.0134 -1.0067  0.1697
 6967TIP3   OH242459   0.447   1.482   2.193  0.0014 -0.0020  0.2398
 6967TIP3    H142460   0.499   1.554   2.158 -2.1505  1.7523  0.4418
 6967TIP3    H242461   0.431   1.426   2.117  0.3003  0.6381 -0.3075
 6968TIP3   OH242462   5.180   4.293   2.281 -0.2000 -0.5211 -0.6206
 6968TIP3    H142463   5.205   4.262   2.194 -1.0835 -1.2500 -0.6270
 6968TIP3    H242464   5.228   4.236   2.341 -0.7801 -1.0394 -0.6371
 6969TIP3   OH242465   5.206   5.355   8.495 -0.3093  0.0600  0.0110
 6969TIP3    H142466   5.176   5.414   8.564 -1.1954  1.3072 -1.3979
 6969TIP3    H242467   5.216   5.270   8.539 -0.5891  0.8720  1.7168
 6970TIP3   OH242468   0.646   4.919   1.649  0.2322  0.3720  0.0246
 6970TIP3    H142469   0.583   4.855   1.683  0.0123  0.9326  0.6913
 6970TIP3    H242470   0.643   4.908   1.554 -0.1138 -0.3150  0.1107
 6971TIP3   OH242471   2.516   6.026   0.102 -0.0401  0.1348 -0.5072
 6971TIP3    H142472   2.543   6.074   0.180  0.5266 -0.1740 -0.5060
 6971TIP3    H242473   2.434   5.984   0.127  0.8809 -1.2007  0.4588
 6972TIP3   OH242474   1.776   5.385   7.331 -0.3683  0.3593 -0.3530
 6972TIP3    H142475   1.773   5.474   7.296 -0.7718  0.8272  0.8220
 6972TIP3    H242476   1.703   5.381   7.393  1.9560  0.4910  2.5971
 6973TIP3   OH242477   4.526   1.978   0.295  0.2423  0.0105  0.4015
 6973TIP3    H142478   4.531   2.064   0.252 -0.7388 -0.5508 -0.9026
 6973TIP3    H242479   4.434   1.953   0.287  0.3828 -0.8740  1.3823
 6974TIP3   OH242480   4.594   1.698   2.969  0.1181  0.1381  0.3077
 6974TIP3    H142481   4.593   1.792   2.954  1.3554  0.3727  1.5065
 6974TIP3    H242482   4.622   1.688   3.060 -0.4617 -1.3843  0.3584
 6975TIP3   OH242483   0.883   5.718   0.864  0.2603 -0.0460  0.3410
 6975TIP3    H142484   0.822   5.744   0.933  1.3150 -0.0643  1.3111
 6975TIP3    H242485   0.871   5.623   0.856 -1.1953  0.1985 -0.8489
 6976TIP3   OH242486   0.398   4.958   7.218  0.2264  0.1566  1.0787
 6976TIP3    H142487   0.383   5.039   7.169 -1.6639 -0.2915  0.8303
 6976TIP3    H242488   0.315   4.941   7.262 -0.1522 -2.7352 -0.5132
 6977TIP3   OH242489   5.483   4.313   2.693 -0.2065  0.4223 -0.3326
 6977TIP3    H142490   5.545   4.253   2.652 -0.2312  1.3528 -1.8299
 6977TIP3    H242491   5.484   4.290   2.786  0.5335 -1.1954 -0.7029
 6978TIP3   OH242492   0.332   1.945   1.552 -0.4006 -0.5039  0.7591
 6978TIP3    H142493   0.280   1.959   1.472 -0.8581 -0.1095  1.1219
 6978TIP3    H242494   0.336   2.031   1.593  0.8377 -0.4549  0.5673
 6979TIP3   OH242495   3.071   2.572   7.885 -0.2271  0.4403  0.3128
 6979TIP3    H142496   3.033   2.575   7.973 -1.3786  0.1271 -0.1588
 6979TIP3    H242497   3.017   2.508   7.838 -0.1129  1.1817 -0.8502
 6980TIP3   OH242498   1.792   1.641   1.989  0.2958  0.3287  0.1262
 6980TIP3    H142499   1.825   1.551   1.990  0.0635  0.2426  0.2169
 6980TIP3    H242500   1.790   1.665   1.897 -2.2577 -0.7433 -0.1830
 6981TIP3   OH242501   0.202   2.142   3.342 -0.0396 -0.1814 -0.1623
 6981TIP3    H142502   0.241   2.215   3.294 -0.8191  0.5881  0.3322
 6981TIP3    H242503   0.270   2.075   3.345  1.9282  1.7102  2.1296
 6982TIP3   OH242504   5.825   0.051   3.183  0.1662  0.0989 -0.0354
 6982TIP3    H142505   5.823   0.028   3.090 -1.1884  2.2215 -0.6053
 6982TIP3    H242506   5.905   0.104   3.193  0.6833 -0.7114  0.1830
 6983TIP3   OH242507   4.793   3.285   8.588  0.3405  0.1178 -0.0652
 6983TIP3    H142508   4.777   3.196   8.622 -1.8331 -0.2096 -1.7728
 6983TIP3    H242509   4.782   3.342   8.664 -1.1483 -0.8527  0.4821
 6984TIP3   OH242510   2.764   3.225   8.400 -0.4799  0.8099 -0.2753
 6984TIP3    H142511   2.668   3.226   8.393 -0.5269 -0.5460 -0.0712
 6984TIP3    H242512   2.793   3.285   8.332 -1.4296 -0.1736 -1.6093
 6985TIP3   OH242513   0.999   1.622   1.734 -0.2752 -0.5463  0.0279
 6985TIP3    H142514   0.988   1.650   1.643 -1.0519 -0.1235  0.2465
 6985TIP3    H242515   0.916   1.579   1.757 -0.5719  0.4616  0.9179
 6986TIP3   OH242516   2.084   2.805   2.317  0.4955  0.0454 -0.1967
 6986TIP3    H142517   2.057   2.822   2.226 -0.8570 -1.0281 -0.0356
 6986TIP3    H242518   2.007   2.764   2.357 -0.2181  3.4677  2.4123
 6987TIP3   OH242519   3.651   4.629   2.653 -0.0168 -0.6721 -0.5007
 6987TIP3    H142520   3.654   4.538   2.683 -0.9426 -0.4416  0.3524
 6987TIP3    H242521   3.656   4.681   2.733 -0.2629  0.0116 -0.9162
 6988TIP3   OH242522   2.171   1.952   0.952 -0.3688  0.5157  0.3342
 6988TIP3    H142523   2.113   1.927   1.024 -0.5424  2.6307  0.9848
 6988TIP3    H242524   2.250   1.898   0.965 -0.8370  0.0668  1.4408
 6989TIP3   OH242525   5.508   4.771   7.244  0.0896 -0.2778  0.9321
 6989TIP3    H142526   5.479   4.849   7.196  0.7014 -0.5079  0.1876
 6989TIP3    H242527   5.569   4.728   7.186  0.1642 -1.0412  1.5645
 6990TIP3   OH242528   1.241   1.536   1.323 -0.1996 -0.6590 -0.5040
 6990TIP3    H142529   1.263   1.583   1.403 -0.4937 -1.5917  0.1450
 6990TIP3    H242530   1.215   1.449   1.353 -0.9558 -0.8181 -1.5644
 6991TIP3   OH242531   3.497   6.095   1.050  0.5923 -0.0687 -0.2411
 6991TIP3    H142532   3.484   6.047   0.968  2.2111 -1.0008 -0.0033
 6991TIP3    H242533   3.412   6.095   1.092 -0.3010  0.4905 -1.9496
 6992TIP3   OH242534   6.313   3.672   2.568 -0.2390 -0.5022 -0.4597
 6992TIP3    H142535   6.400   3.682   2.530  0.3417 -1.3871  0.6003
 6992TIP3    H242536   6.267   3.753   2.545  0.2788 -0.7460 -2.4836
 6993TIP3   OH242537   6.403   1.100   7.274 -0.0784  0.0020  0.4062
 6993TIP3    H142538   6.447   1.111   7.358 -0.2561 -1.5021  0.7225
 6993TIP3    H242539   6.443   1.021   7.236 -0.9907 -0.1446 -0.2836
 6994TIP3   OH242540   1.581   4.287   2.515 -0.4351  0.4753  0.3522
 6994TIP3    H142541   1.495   4.328   2.517  0.6479  2.8450  1.4688
 6994TIP3    H242542   1.596   4.257   2.605 -0.3913 -0.6853 -0.0171
 6995TIP3   OH242543   4.102   0.326   3.373 -0.3629  0.3527 -0.0334
 6995TIP3    H142544   4.066   0.385   3.439  0.4752  1.6796 -0.7267
 6995TIP3    H242545   4.155   0.382   3.317  1.1134 -1.1804 -0.2689
 6996TIP3   OH242546   3.795   5.702   8.435  0.2705 -0.5350  0.2862
 6996TIP3    H142547   3.806   5.677   8.343  0.7518  1.2619 -0.1861
 6996TIP3    H242548   3.795   5.619   8.482  2.4528 -1.4062 -1.0814
 6997TIP3   OH242549   2.141   5.537   8.840  0.3177  0.2819 -0.7037
 6997TIP3    H142550   2.150   5.515   8.748 -0.4453  2.2468 -1.3065
 6997TIP3    H242551   2.190   5.618   8.851 -2.6275  2.1666 -0.3336
 6998TIP3   OH242552   1.342   5.978   1.397  0.1683 -0.2320  0.2359
 6998TIP3    H142553   1.251   6.000   1.417  0.6694 -0.8298  3.8521
 6998TIP3    H242554   1.391   6.054   1.429  1.0138 -0.3519 -0.7531
 6999TIP3   OH242555   5.801   5.934   2.041  0.2156  0.3405 -0.6183
 6999TIP3    H142556   5.752   5.931   2.124  0.5248  1.2861 -0.3947
 6999TIP3    H242557   5.770   5.857   1.993 -0.5381  0.2057  0.0515
 7000TIP3   OH242558   2.208   2.881   1.373  0.0659  0.4906  0.3877
 7000TIP3    H142559   2.179   2.894   1.463 -0.6669  1.6933 -0.0061
 7000TIP3    H242560   2.238   2.967   1.344 -1.4149  0.5708 -1.0979
 7001TIP3   OH242561   0.382   2.223   1.318 -0.1221  0.1660  0.0699
 7001TIP3    H142562   0.381   2.141   1.269  3.5073  1.2055 -2.1397
 7001TIP3    H242563   0.356   2.289   1.255 -0.6013  1.0112  1.1232
 7002TIP3   OH242564   2.546   6.762   7.637 -0.0740 -0.2554 -0.1559
 7002TIP3    H142565   2.560   6.739   7.545 -0.9467  0.2061 -0.4117
 7002TIP3    H242566   2.593   6.845   7.647 -3.0814  1.7385 -1.2386
 7003TIP3   OH242567   5.721   4.133   7.604  0.3439 -0.3567  0.4386
 7003TIP3    H142568   5.699   4.040   7.593  0.0726 -0.0966 -1.6782
 7003TIP3    H242569   5.791   4.133   7.669  0.0899 -2.0095  0.7638
 7004TIP3   OH242570   1.752   0.097   0.936 -0.2821 -0.5555 -0.1118
 7004TIP3    H142571   1.713   0.054   1.012  2.1350 -1.3297  0.7894
 7004TIP3    H242572   1.763   0.188   0.963  1.2978 -0.9888  0.8590
 7005TIP3   OH242573   3.591   2.299   2.478  0.2485  0.0611  0.0930
 7005TIP3    H142574   3.612   2.316   2.570  0.4228  1.0948 -0.1265
 7005TIP3    H242575   3.533   2.371   2.453 -0.8727 -0.9355 -0.2494
 7006TIP3   OH242576   4.209   4.466   1.689  0.3799 -0.1651  0.1040
 7006TIP3    H142577   4.296   4.495   1.663 -0.0595  2.2697  1.0885
 7006TIP3    H242578   4.165   4.444   1.607  1.9712 -1.7557 -0.3866
 7007TIP3   OH242579   1.487   2.501   1.062 -0.2768 -0.4058 -0.3888
 7007TIP3    H142580   1.563   2.443   1.064 -1.5927 -2.1707  0.6336
 7007TIP3    H242581   1.420   2.454   1.013 -1.5428 -0.0234  0.8761
 7008TIP3   OH242582   4.519   6.259   0.921  0.1170  0.0360 -0.1036
 7008TIP3    H142583   4.456   6.319   0.881  0.4178  0.1047 -0.4808
 7008TIP3    H242584   4.487   6.172   0.900  0.1351  0.0713 -0.2794
 7009TIP3   OH242585   6.729   3.417   8.825 -0.2783  0.1195 -0.2129
 7009TIP3    H142586   6.802   3.474   8.801 -1.9404  1.8347 -1.5378
 7009TIP3    H242587   6.757   3.330   8.797  1.3399  0.6872 -0.4767
 7010TIP3   OH242588   6.232   1.461   0.665  0.4232 -0.1372 -0.8582
 7010TIP3    H142589   6.140   1.477   0.685  0.6479 -1.5927  1.7976
 7010TIP3    H242590   6.280   1.520   0.723  1.2284  1.2049 -2.7962
 7011TIP3   OH242591   0.545   5.134   2.046 -0.0432 -0.3820 -1.0253
 7011TIP3    H142592   0.485   5.149   2.118  0.9476 -0.8454 -0.0732
 7011TIP3    H242593   0.589   5.219   2.033  1.4273 -0.8457  0.5022
 7012TIP3   OH242594   6.491   5.188   0.547  0.0646 -0.2695 -0.1879
 7012TIP3    H142595   6.400   5.158   0.545 -0.4529  1.2049 -1.9337
 7012TIP3    H242596   6.542   5.108   0.535 -1.0805 -0.9438 -0.7874
 7013TIP3   OH242597   0.752   1.468   1.764 -0.5413  0.7555  0.0991
 7013TIP3    H142598   0.675   1.449   1.818  1.8308 -2.0947  2.8240
 7013TIP3    H242599   0.748   1.404   1.694  0.4395 -1.0025  1.5749
 7014TIP3   OH242600   3.896   3.291   1.911 -0.1558  0.5844  0.6227
 7014TIP3    H142601   3.892   3.198   1.892  0.4972  1.0136 -2.1446
 7014TIP3    H242602   3.822   3.308   1.969  0.6634 -1.8677  2.5389
 7015TIP3   OH242603   2.907   5.773   0.224  0.2265  0.3817 -0.1055
 7015TIP3    H142604   2.865   5.822   0.154  1.4551  3.5702  1.1708
 7015TIP3    H242605   2.854   5.791   0.302  0.2076 -1.1250  0.2579
 7016TIP3   OH242606   0.340   0.019   7.996  0.5865  0.0001 -0.1478
 7016TIP3    H142607   0.329   0.003   8.090  2.2090  0.0317  0.0808
 7016TIP3    H242608   0.417   0.076   7.991  0.1975  0.4417 -1.4769
 7017TIP3   OH242609   2.667   2.959   0.252 -0.3297 -0.2714  0.0374
 7017TIP3    H142610   2.606   3.032   0.240 -1.5340 -1.4736 -1.3998
 7017TIP3    H242611   2.619   2.896   0.306  0.1184 -0.6977 -0.0534
 7018TIP3   OH242612   3.801   0.257   3.005 -0.1944  0.2559  0.1910
 7018TIP3    H142613   3.834   0.167   3.007  0.3435  0.4598  0.7488
 7018TIP3    H242614   3.774   0.274   3.096 -2.0903  0.0084 -0.2767
 7019TIP3   OH242615   3.108   6.143   1.009  0.2739 -0.0830 -0.7855
 7019TIP3    H142616   3.125   6.185   0.925  0.1365 -1.4763 -1.5407
 7019TIP3    H242617   3.166   6.067   1.010 -0.3488 -0.5638 -0.0023
 7020TIP3   OH242618   6.173   2.123   0.327 -0.2601 -0.1891 -0.8594
 7020TIP3    H142619   6.086   2.156   0.306  0.1502  0.9963 -0.8156
 7020TIP3    H242620   6.159   2.059   0.397 -0.9586  1.3134  0.4577
 7021TIP3   OH242621   6.736   0.712   2.435  0.4579 -0.5415  0.2022
 7021TIP3    H142622   6.694   0.626   2.425 -1.1868  0.2059  0.3879
 7021TIP3    H242623   6.786   0.723   2.355 -2.4893 -0.0195 -1.7283
 7022TIP3   OH242624   1.537   0.531   1.959 -0.5848  0.3724  0.0850
 7022TIP3    H142625   1.469   0.516   1.894  0.6322  0.4653 -1.2595
 7022TIP3    H242626   1.549   0.446   2.002 -2.4692  0.6754  1.3275
 7023TIP3   OH242627   1.263   1.691   1.557  0.0654 -0.4516  0.0199
 7023TIP3    H142628   1.297   1.638   1.629 -1.7678  0.3795  1.5674
 7023TIP3    H242629   1.340   1.738   1.524  0.7472  0.1509  2.3086
 7024TIP3   OH242630   3.664   6.243   1.430  0.9157  0.2403  0.4201
 7024TIP3    H142631   3.636   6.187   1.503 -2.1263 -0.5718 -1.2296
 7024TIP3    H242632   3.638   6.332   1.457  0.5768  0.0580  0.7069
 7025TIP3   OH242633   6.257   6.760   7.614  0.0770 -0.3641  0.0288
 7025TIP3    H142634   6.166   6.786   7.596 -0.2463 -2.6127 -2.2256
 7025TIP3    H242635   6.255   6.727   7.704 -1.2462  0.0025  0.1593
 7026TIP3   OH242636   5.803   1.684   8.355  0.2151  0.4564 -0.3067
 7026TIP3    H142637   5.812   1.591   8.376  0.6085  0.6872  0.5928
 7026TIP3    H242638   5.728   1.688   8.295  0.6620 -0.5187 -0.9581
 7027TIP3   OH242639   6.001   3.134   8.361  0.0386  0.3200  0.1207
 7027TIP3    H142640   6.003   3.044   8.328 -0.1192  0.4897 -0.3500
 7027TIP3    H242641   5.950   3.129   8.441 -0.3930  0.0781 -0.1680
 7028TIP3   OH242642   4.268   6.011   2.192 -0.0731 -0.3822 -0.7094
 7028TIP3    H142643   4.263   6.095   2.238 -0.9994  0.9520 -3.0930
 7028TIP3    H242644   4.177   5.986   2.178  0.1914 -0.8195 -1.6802
 7029TIP3   OH242645   5.990   1.955   0.743 -0.2830 -0.1469 -0.0773
 7029TIP3    H142646   5.901   1.975   0.771  0.1396 -0.0553  1.2538
 7029TIP3    H242647   6.043   2.026   0.778  0.4029 -0.5013 -0.3786
 7030TIP3   OH242648   1.297   1.129   8.423  0.1387  0.1734 -0.2072
 7030TIP3    H142649   1.290   1.059   8.357 -1.2977 -0.3370  0.4447
 7030TIP3    H242650   1.249   1.095   8.498 -0.0051  1.6070  0.3659
 7031TIP3   OH242651   3.504   2.926   3.225  0.2718  0.4197  0.7049
 7031TIP3    H142652   3.507   3.013   3.265  0.1414  1.2253 -0.9812
 7031TIP3    H242653   3.415   2.918   3.192 -0.4386 -1.3254  2.8438
 7032TIP3   OH242654   0.603   3.652   1.832  0.3943  0.0747  0.0476
 7032TIP3    H142655   0.578   3.719   1.769  0.4980  0.9789  0.9440
 7032TIP3    H242656   0.680   3.610   1.793  0.4885  0.6506 -0.3998
 7033TIP3   OH242657   1.868   3.219   8.779  0.1847  0.0064 -1.1716
 7033TIP3    H142658   1.858   3.240   8.686 -0.7569  0.1604 -1.0480
 7033TIP3    H242659   1.780   3.227   8.814  0.9664  3.0890  0.4067
 7034TIP3   OH242660   0.131   5.600   2.973  0.5040  0.0143  0.0018
 7034TIP3    H142661   0.195   5.635   3.035 -0.5982  0.1379  1.1177
 7034TIP3    H242662   0.112   5.673   2.915  1.7351 -0.1735 -0.6595
 7035TIP3   OH242663   6.319   2.624   1.802  0.1736 -0.2770  0.2377
 7035TIP3    H142664   6.403   2.612   1.758  0.4212  1.6856  0.0560
 7035TIP3    H242665   6.343   2.653   1.890 -0.3002 -0.1463  0.3260
 7036TIP3   OH242666   3.352   4.350   1.460  0.2572  0.6720  0.5983
 7036TIP3    H142667   3.374   4.392   1.376  0.3971  0.6197  0.6086
 7036TIP3    H242668   3.261   4.323   1.450  0.5140 -0.0769  0.1529
 7037TIP3   OH242669   6.251   4.548   2.081 -0.1552 -0.5272  0.6667
 7037TIP3    H142670   6.311   4.541   2.154  1.8646  1.1691 -0.7080
 7037TIP3    H242671   6.255   4.462   2.038  2.1135 -0.1868  0.0666
 7038TIP3   OH242672   0.014   4.420   2.349  0.3201 -0.4262 -0.0971
 7038TIP3    H142673  -0.011   4.355   2.284  0.6645  0.1566 -0.8352
 7038TIP3    H242674   0.010   4.504   2.302  2.6125 -0.1828  0.0117
 7039TIP3   OH242675   5.293   4.935   2.957  0.0667  0.0743 -0.1465
 7039TIP3    H142676   5.344   4.971   2.885  1.7760 -1.3057  0.3113
 7039TIP3    H242677   5.358   4.901   3.018 -1.3400 -3.4747 -0.3936
 7040TIP3   OH242678   2.001   4.178   0.762 -0.2432 -0.0627 -0.2146
 7040TIP3    H142679   2.048   4.095   0.765  0.1185  0.1569  0.5349
 7040TIP3    H242680   1.972   4.187   0.671 -0.3874 -1.0612 -0.2752
 7041TIP3   OH242681   2.240   4.666   0.098 -0.1710 -0.4030  0.6258
 7041TIP3    H142682   2.325   4.639   0.063  0.5859 -0.3692  2.3336
 7041TIP3    H242683   2.235   4.760   0.077  0.8934 -0.0679  1.7383
 7042TIP3   OH242684   6.171   5.758   1.757  0.0409 -0.7333  0.5896
 7042TIP3    H142685   6.076   5.761   1.749 -0.0338 -0.3092  1.4588
 7042TIP3    H242686   6.202   5.838   1.714 -0.0088 -0.8163  0.4025
 7043TIP3   OH242687   1.710   5.941   0.126 -0.1399 -0.4688  0.0705
 7043TIP3    H142688   1.776   5.926   0.059 -0.0123  0.6934 -0.0933
 7043TIP3    H242689   1.627   5.943   0.078 -0.6184 -3.9003  0.5072
 7044TIP3   OH242690   0.812   5.041   1.367 -0.4958  0.1960  0.3435
 7044TIP3    H142691   0.881   5.067   1.306  1.2271  0.5369  2.3075
 7044TIP3    H242692   0.782   5.123   1.405  0.5912 -0.1282  2.0582
 7045TIP3   OH242693   1.451   2.629   0.074  0.2741  0.1127  0.0999
 7045TIP3    H142694   1.374   2.664   0.119 -0.6976  1.8405 -2.7078
 7045TIP3    H242695   1.514   2.701   0.072  0.9858 -0.4812  0.1162
 7046TIP3   OH242696   3.644   6.233   8.277 -0.4537  0.6223 -0.0909
 7046TIP3    H142697   3.643   6.317   8.232 -1.3092 -0.4098 -2.1001
 7046TIP3    H242698   3.652   6.168   8.207 -1.2931 -1.0443  1.2908
 7047TIP3   OH242699   4.224   5.869   7.648 -0.2222 -0.0584 -0.4256
 7047TIP3    H142700   4.300   5.925   7.664 -0.1218  0.6319 -2.9681
 7047TIP3    H242701   4.152   5.929   7.630 -0.9421 -0.7412  0.0779
 7048TIP3   OH242702   0.259   6.670   2.443  0.0100  0.1490  0.6380
 7048TIP3    H142703   0.242   6.752   2.489  2.5519  0.0140  2.0051
 7048TIP3    H242704   0.205   6.606   2.488  0.2650  0.5616  1.5580
 7049TIP3   OH242705   0.017   3.504   0.607  0.2393  1.2107  0.4874
 7049TIP3    H142706   0.070   3.514   0.528 -0.3762  2.7831  0.2270
 7049TIP3    H242707  -0.014   3.414   0.605  1.3062  0.8484 -0.3667
 7050TIP3   OH242708   5.923   2.485   7.561  0.1943 -0.1942  0.6973
 7050TIP3    H142709   5.900   2.444   7.477 -1.5531  2.2524 -0.1092
 7050TIP3    H242710   5.960   2.570   7.538 -1.7003  1.1884  2.3697
 7051TIP3   OH242711   5.534   0.966   3.327  0.2829  0.1298 -0.4774
 7051TIP3    H142712   5.600   1.035   3.328 -1.1451  1.5262  0.5784
 7051TIP3    H242713   5.576   0.895   3.277  2.8073  0.6925  0.6565
 7052TIP3   OH242714   0.054   0.881   1.402  0.0172  0.0738  0.1415
 7052TIP3    H142715   0.109   0.924   1.467 -0.4457  0.7380  0.0973
 7052TIP3    H242716  -0.034   0.912   1.420 -0.0518  0.6556 -1.1112
 7053TIP3   OH242717   6.261   5.786   2.579 -0.0907 -0.1430 -0.2375
 7053TIP3    H142718   6.231   5.741   2.500 -1.2349 -0.5501  0.4081
 7053TIP3    H242719   6.204   5.753   2.648  0.2327  0.9629  0.5775
 7054TIP3   OH242720   0.283   0.957   1.550  0.0337  0.4637 -0.8923
 7054TIP3    H142721   0.343   0.953   1.625 -0.7306 -0.2682 -0.3072
 7054TIP3    H242722   0.279   0.867   1.518  3.0380  1.2185 -4.0321
 7055LIG      O42723   6.251   1.187   5.510 -0.2066 -0.5142 -0.0714
 7055LIG      N42724   6.026   0.911   5.274 -0.5869  0.1924  0.5477
 7055LIG     C142725   6.283   1.339   5.340 -0.4391  0.0743  0.3358
 7055LIG     C242726   6.179   1.247   5.404  0.1367  0.5501 -0.5578
 7055LIG     C342727   6.325   1.459   5.436  0.3758  0.4059  0.0214
 7055LIG     C442728   6.423   1.268   5.294  0.2924  0.3793 -0.3719
 7055LIG     C542729   6.134   1.135   5.308  0.0534  0.1630  0.4173
 7055LIG     C642730   6.407   1.556   5.356 -0.2014  0.3553  0.9247
 7055LIG     C742731   6.510   1.363   5.216  0.7606 -0.4232 -0.0701
 7055LIG     C842732   6.532   1.497   5.295  0.2577 -0.4955 -0.2724
 7055LIG     C942733   6.034   1.029   5.359  0.1484 -0.5254  0.2511
 7055LIG    C1042734   6.044   1.315   5.448  0.0573 -1.0658  0.5136
 7055LIG    C1142735   5.980   0.787   5.341  0.0152  0.1364  0.3167
 7055LIG    C1242736   5.968   0.922   5.146 -0.2806 -0.8646  0.3998
 7055LIG    C1342737   5.829   0.788   5.370  0.3829  0.3663  0.9801
 7055LIG    C1442738   5.813   0.926   5.163  0.2651 -0.0604 -0.3919
 7055LIG    C1542739   5.751   0.801   5.239 -0.1301  0.7097 -0.1224
 7055LIG    C1642740   5.977   1.394   5.351  0.4534 -0.6531  0.3707
 7055LIG    C1742741   5.988   1.312   5.575  0.7322  0.3335  0.3466
 7055LIG    C1842742   5.863   1.473   5.379  0.0342 -0.1295  0.3711
 7055LIG    C1942743   5.869   1.381   5.602  0.7276 -0.0576 -0.0529
 7055LIG    C2042744   5.802   1.462   5.504  0.1979 -0.7903  0.4231
 7055LIG     H142745   6.239   1.383   5.248  1.6472  0.4650 -0.5219
 7055LIG     H242746   6.370   1.425   5.532  0.5931  2.0420  0.5454
 7055LIG     H342747   6.247   1.531   5.469 -1.0009 -1.0167 -0.0291
 7055LIG     H442748   6.394   1.181   5.231 -0.3279 -0.9262  1.6025
 7055LIG     H542749   6.476   1.235   5.386  0.8757  0.6255 -0.6160
 7055LIG     H642750   6.227   1.081   5.278  0.3109  1.0644 -0.4619
 7055LIG     H742751   6.092   1.177   5.214  1.0691 -1.8880 -1.0414
 7055LIG     H842752   6.425   1.644   5.421 -0.3888  0.3221  1.0228
 7055LIG     H942753   6.340   1.592   5.275 -0.4831  2.2971  1.9549
 7055LIG    H1042754   6.466   1.388   5.117 -1.6539 -0.8757  0.8272
 7055LIG    H1142755   6.608   1.315   5.197  0.2340 -0.8403 -1.9566
 7055LIG    H1242756   6.592   1.472   5.385 -1.9427  0.5746  1.6041
 7055LIG    H1342757   6.584   1.576   5.238  1.7388 -0.5215  0.9877
 7055LIG    H1442758   6.078   0.993   5.454  0.4533 -0.7134  0.0409
 7055LIG    H1542759   5.938   1.076   5.390  0.1523 -0.4152  0.0978
 7055LIG    H1642760   6.036   0.765   5.434 -1.1059  0.8352  1.1752
 7055LIG    H1742761   5.996   0.697   5.276  3.3114  0.4792  0.4942
 7055LIG    H1842762   6.007   0.843   5.077 -0.7281 -1.6232  0.9928
 7055LIG    H1942763   6.014   1.016   5.109  1.4335 -1.7658  0.0896
 7055LIG    H2042764   6.307   1.122   5.467 -0.0460 -1.4382  1.4762
 7055LIG    H2142765   5.806   0.874   5.436 -3.6762  0.2889 -0.0782
 7055LIG    H2242766   5.802   0.690   5.416  0.0478 -0.4427 -0.8504
 7055LIG    H2342767   5.766   0.945   5.064  1.4809 -0.4138 -1.0557
 7055LIG    H2442768   5.784   1.022   5.211 -2.0743 -0.5062 -0.7803
 7055LIG    H2542769   5.641   0.810   5.238 -0.2045  0.4036 -3.0941
 7055LIG    H2642770   5.782   0.713   5.177 -0.5652  0.6753 -0.2931
 7055LIG    H2742771   6.021   1.395   5.253  1.1389 -0.8950  0.6731
 7055LIG    H2842772   6.032   1.245   5.647 -1.2202 -0.7306  0.6106
 7055LIG    H2942773   5.824   1.528   5.295 -0.4691 -0.7647  0.1800
 7055LIG    H3042774   5.823   1.397   5.699 -2.1414  0.0623 -1.3204
 7055LIG    H3142775   5.707   1.514   5.510  0.7455  0.5494 -1.4992
   6.77261   6.77261   8.91969
