* GENERATED BY CHARMM-GUI (HTTP://WWW.CHARMM-GUI.ORG) V3.7 ON OCT, 22. 2024. JOB
* REPLACE PACKED BIG SPHERES BY LIPID MOLECULES OF RANDOM CONFORMATION
*  DATE:    10/22/24     11:25: 9      CREATED BY USER: apache
*
     22252  EXT
         1         1  SAPS      N               2.0896075651        0.5122829818       19.8215654760  MEMB      1               0.0000000000
         2         1  SAPS      HN1             2.3811402009        1.2909273625       20.4463228555  MEMB      1               0.0000000000
         3         1  SAPS      HN2             2.7553601506        0.5638507399       19.0242485521  MEMB      1               0.0000000000
         4         1  SAPS      HN3             1.0710904640        0.6441677102       19.6577688970  MEMB      1               0.0000000000
         5         1  SAPS      C12             2.2177037438       -0.7122912728       20.6774610010  MEMB      1               0.0000000000
         6         1  SAPS      H12A            3.2199000595       -0.6294916928       21.0713477900  MEMB      1               0.0000000000
         7         1  SAPS      C13             1.1168689969       -0.7537874608       21.7717153303  MEMB      1               0.0000000000
         8         1  SAPS      O13A            0.2406487383        0.1871131960       21.8293623378  MEMB      1               0.0000000000
         9         1  SAPS      O13B            0.8518983582       -1.9118080113       22.1420043884  MEMB      1               0.0000000000
        10         1  SAPS      C11             2.0893504032       -2.0142798162       19.7553040510  MEMB      1               0.0000000000
        11         1  SAPS      H11A            1.1005573830       -1.9694602452       19.2507244668  MEMB      1               0.0000000000
        12         1  SAPS      H11B            2.1677532774       -2.9089770810       20.4092847436  MEMB      1               0.0000000000
        13         1  SAPS      P               4.3965460012       -2.9472342766       18.8820108404  MEMB      1               0.0000000000
        14         1  SAPS      O13             5.4311863629       -1.9650744865       19.3916310497  MEMB      1               0.0000000000
        15         1  SAPS      O14             4.2092848213       -4.2376240482       19.6604553559  MEMB      1               0.0000000000
        16         1  SAPS      O12             3.0949211050       -2.1343260320       18.7219195434  MEMB      1               0.0000000000
        17         1  SAPS      O11             4.5953079153       -3.1808666740       17.3465706239  MEMB      1               0.0000000000
        18         1  SAPS      C1              4.5439857953       -4.3469563523       16.6465956654  MEMB      1               0.0000000000
        19         1  SAPS      HA              5.3475286577       -5.0534692075       16.9457273572  MEMB      1               0.0000000000
        20         1  SAPS      HB              3.5680214710       -4.8360720482       16.8529457384  MEMB      1               0.0000000000
        21         1  SAPS      C2              4.7563325875       -4.1429112165       15.0851754005  MEMB      1               0.0000000000
        22         1  SAPS      HS              5.7646093629       -3.7256922245       14.8763043172  MEMB      1               0.0000000000
        23         1  SAPS      O21             3.6828716863       -3.2869166566       14.5959443229  MEMB      1               0.0000000000
        24         1  SAPS      C21             4.0916368033       -2.0106637455       14.3869193648  MEMB      1               0.0000000000
        25         1  SAPS      O22             5.2214737847       -1.6028089732       14.5118002111  MEMB      1               0.0000000000
        26         1  SAPS      C22             2.9808067742       -1.1037264969       13.9530531082  MEMB      1               0.0000000000
        27         1  SAPS      H2R             2.5945407222       -0.4877084526       14.7930778212  MEMB      1               0.0000000000
        28         1  SAPS      H2S             3.3959476609       -0.3738713597       13.2255294502  MEMB      1               0.0000000000
        29         1  SAPS      C3              4.6607474411       -5.5237632362       14.3045252257  MEMB      1               0.0000000000
        30         1  SAPS      HX              3.6075101387       -5.8712150961       14.3700194524  MEMB      1               0.0000000000
        31         1  SAPS      HY              5.3101482493       -6.2756661799       14.8017589285  MEMB      1               0.0000000000
        32         1  SAPS      O31             5.1807003761       -5.4592806654       12.9936954990  MEMB      1               0.0000000000
        33         1  SAPS      C31             4.2538548462       -5.1039155435       12.0708164977  MEMB      1               0.0000000000
        34         1  SAPS      O32             3.0165582660       -5.0524832372       12.2376620214  MEMB      1               0.0000000000
        35         1  SAPS      C32             4.8969587962       -4.9608115380       10.7337757979  MEMB      1               0.0000000000
        36         1  SAPS      H2X             5.0992574464       -5.9107348428       10.1942933851  MEMB      1               0.0000000000
        37         1  SAPS      H2Y             5.8774476716       -4.4646786923       10.8975290471  MEMB      1               0.0000000000
        38         1  SAPS      C23             1.8782410491       -1.8389617376       13.2645518102  MEMB      1               0.0000000000
        39         1  SAPS      H3R             1.4486261209       -2.6807477451       13.8486308871  MEMB      1               0.0000000000
        40         1  SAPS      H3S             2.2544322525       -2.2719313598       12.3130589215  MEMB      1               0.0000000000
        41         1  SAPS      C24             0.6335318050       -0.8850294362       12.9031732755  MEMB      1               0.0000000000
        42         1  SAPS      H4R             0.1395376562       -0.6771088127       13.8763432135  MEMB      1               0.0000000000
        43         1  SAPS      H4S            -0.0969792164       -1.5716057474       12.4243336393  MEMB      1               0.0000000000
        44         1  SAPS      C25             0.9230128604        0.4156508278       12.1975586883  MEMB      1               0.0000000000
        45         1  SAPS      H5R             1.0476823228        1.2533276279       12.8995237192  MEMB      1               0.0000000000
        46         1  SAPS      C26             1.3419413174        0.5918092697       10.9254369005  MEMB      1               0.0000000000
        47         1  SAPS      H6R             1.4875050658        1.6134828446       10.5446562821  MEMB      1               0.0000000000
        48         1  SAPS      C27             1.6353697061       -0.5060714668        9.8858674080  MEMB      1               0.0000000000
        49         1  SAPS      H7R             1.0704004282       -1.4595709074        9.9631307594  MEMB      1               0.0000000000
        50         1  SAPS      H7S             2.7321760587       -0.6801406177        9.9180689008  MEMB      1               0.0000000000
        51         1  SAPS      C28             1.4556316369        0.0946103268        8.5295066236  MEMB      1               0.0000000000
        52         1  SAPS      H8R             0.7145026078       -0.3852533238        7.8734135185  MEMB      1               0.0000000000
        53         1  SAPS      C29             2.1258303478        0.9934767206        7.7935950424  MEMB      1               0.0000000000
        54         1  SAPS      H9R             1.8344053957        1.1828252660        6.7499391108  MEMB      1               0.0000000000
        55         1  SAPS      C210            3.3589895290        1.7296115881        8.2369692439  MEMB      1               0.0000000000
        56         1  SAPS      H10R            4.1761763412        1.0968211514        8.6445272915  MEMB      1               0.0000000000
        57         1  SAPS      H10S            3.0779782981        2.4993031347        8.9872551433  MEMB      1               0.0000000000
        58         1  SAPS      C211            4.0291251575        2.4806907360        7.0486780329  MEMB      1               0.0000000000
        59         1  SAPS      H11R            3.7929396235        3.5548260195        7.0274668035  MEMB      1               0.0000000000
        60         1  SAPS      C212            4.6393454120        2.0415381832        5.9529733353  MEMB      1               0.0000000000
        61         1  SAPS      H12R            4.9003720619        2.7131648750        5.1218399747  MEMB      1               0.0000000000
        62         1  SAPS      C213            4.9204261374        0.5826995427        5.5950597870  MEMB      1               0.0000000000
        63         1  SAPS      H13R            4.8534350471       -0.1769513288        6.4029981088  MEMB      1               0.0000000000
        64         1  SAPS      H13S            5.9819461591        0.4835736706        5.2825374329  MEMB      1               0.0000000000
        65         1  SAPS      C214            4.0736107715        0.2360482579        4.3841227165  MEMB      1               0.0000000000
        66         1  SAPS      H14R            2.9947195598        0.2592444796        4.5973264099  MEMB      1               0.0000000000
        67         1  SAPS      C215            4.4255708239       -0.1833477416        3.1233916829  MEMB      1               0.0000000000
        68         1  SAPS      H15R            3.5983490565       -0.4606605395        2.4534641132  MEMB      1               0.0000000000
        69         1  SAPS      C216            5.8509788974       -0.3958380592        2.5879968434  MEMB      1               0.0000000000
        70         1  SAPS      H16R            5.8632090022       -1.4084792617        2.1311276783  MEMB      1               0.0000000000
        71         1  SAPS      H16S            6.6550828266       -0.3665938382        3.3540793567  MEMB      1               0.0000000000
        72         1  SAPS      C217            6.2469203133        0.6110073791        1.5198530343  MEMB      1               0.0000000000
        73         1  SAPS      H17R            7.2651303144        0.2437262261        1.2695054730  MEMB      1               0.0000000000
        74         1  SAPS      H17S            6.3872705490        1.5695599747        2.0637270672  MEMB      1               0.0000000000
        75         1  SAPS      C218            5.3601085788        0.7636162152        0.3204365409  MEMB      1               0.0000000000
        76         1  SAPS      H18R            5.9108909751        1.2970649404       -0.4835489446  MEMB      1               0.0000000000
        77         1  SAPS      H18S            4.4314650814        1.3069665146        0.5974079019  MEMB      1               0.0000000000
        78         1  SAPS      C219            4.9704034893       -0.5991860370       -0.2897596445  MEMB      1               0.0000000000
        79         1  SAPS      H19R            4.2605636259       -1.1596161739        0.3555051010  MEMB      1               0.0000000000
        80         1  SAPS      H19S            5.8349670943       -1.2596095884       -0.5149084527  MEMB      1               0.0000000000
        81         1  SAPS      C220            4.2186489482       -0.5019433783       -1.6829117507  MEMB      1               0.0000000000
        82         1  SAPS      H20R            3.8357431012       -1.5223577236       -1.8984537749  MEMB      1               0.0000000000
        83         1  SAPS      H20S            4.8670122629       -0.1193223105       -2.4999472669  MEMB      1               0.0000000000
        84         1  SAPS      H20T            3.3609455811        0.1971312163       -1.5831080705  MEMB      1               0.0000000000
        85         1  SAPS      C33             4.1525376428       -3.9764803622        9.9086011848  MEMB      1               0.0000000000
        86         1  SAPS      H3X             4.0441295631       -3.0001266647       10.4275447099  MEMB      1               0.0000000000
        87         1  SAPS      H3Y             3.1395578887       -4.3503589644        9.6470518369  MEMB      1               0.0000000000
        88         1  SAPS      C34             4.6836269950       -3.6391343811        8.4928516363  MEMB      1               0.0000000000
        89         1  SAPS      H4X             5.5714613178       -2.9789077162        8.5937066385  MEMB      1               0.0000000000
        90         1  SAPS      H4Y             3.9787609125       -3.0040709083        7.9147697215  MEMB      1               0.0000000000
        91         1  SAPS      C35             5.0757333754       -4.9394647894        7.7928816527  MEMB      1               0.0000000000
        92         1  SAPS      H5X             4.0838772574       -5.4268718070        7.6789657801  MEMB      1               0.0000000000
        93         1  SAPS      H5Y             5.7040447052       -5.5995118815        8.4284002993  MEMB      1               0.0000000000
        94         1  SAPS      C36             5.7260356737       -4.7489991161        6.4553785243  MEMB      1               0.0000000000
        95         1  SAPS      H6X             5.8339639828       -5.6743952955        5.8501388711  MEMB      1               0.0000000000
        96         1  SAPS      H6Y             6.7637264929       -4.5301471907        6.7864717065  MEMB      1               0.0000000000
        97         1  SAPS      C37             5.2703689154       -3.5986137336        5.5475144294  MEMB      1               0.0000000000
        98         1  SAPS      H7X             6.1483552620       -3.4515246574        4.8828153128  MEMB      1               0.0000000000
        99         1  SAPS      H7Y             5.2571782176       -2.6350597802        6.1004255776  MEMB      1               0.0000000000
       100         1  SAPS      C38             3.9599960914       -3.7882482097        4.6587273693  MEMB      1               0.0000000000
       101         1  SAPS      H8X             4.0704910591       -4.8501088995        4.3512151431  MEMB      1               0.0000000000
       102         1  SAPS      H8Y             4.0746842799       -3.2337653377        3.7028430410  MEMB      1               0.0000000000
       103         1  SAPS      C39             2.6135838841       -3.5133896518        5.3572157482  MEMB      1               0.0000000000
       104         1  SAPS      H9X             2.6973909786       -2.4361009519        5.6155682916  MEMB      1               0.0000000000
       105         1  SAPS      H9Y             2.5412612506       -4.0666448363        6.3179440244  MEMB      1               0.0000000000
       106         1  SAPS      C310            1.3571119869       -3.5220422191        4.5227655555  MEMB      1               0.0000000000
       107         1  SAPS      H10X            1.2765734934       -4.6201373284        4.3743677117  MEMB      1               0.0000000000
       108         1  SAPS      H10Y            1.6185885048       -3.0737242711        3.5404401137  MEMB      1               0.0000000000
       109         1  SAPS      C311            0.1068128946       -2.8963609140        5.1473434742  MEMB      1               0.0000000000
       110         1  SAPS      H11X            0.3342402100       -1.8324589911        5.3725343403  MEMB      1               0.0000000000
       111         1  SAPS      H11Y           -0.1758797732       -3.3225237274        6.1336450142  MEMB      1               0.0000000000
       112         1  SAPS      C312           -1.2088178026       -3.0265476696        4.3032408688  MEMB      1               0.0000000000
       113         1  SAPS      H12X           -1.9170498847       -2.6138418247        5.0531753217  MEMB      1               0.0000000000
       114         1  SAPS      H12Y           -1.4051119598       -4.1149829014        4.1978924000  MEMB      1               0.0000000000
       115         1  SAPS      C313           -1.2034649300       -2.3120559532        2.9173558220  MEMB      1               0.0000000000
       116         1  SAPS      H13X           -0.3851040429       -1.5649030458        2.9971608268  MEMB      1               0.0000000000
       117         1  SAPS      H13Y           -2.1905322395       -1.8497143569        2.7022749398  MEMB      1               0.0000000000
       118         1  SAPS      C314           -0.7898805073       -3.0845626828        1.6817533936  MEMB      1               0.0000000000
       119         1  SAPS      H14X           -1.2858021790       -4.0785362285        1.7017393644  MEMB      1               0.0000000000
       120         1  SAPS      H14Y            0.2675726264       -3.4249643608        1.6972725660  MEMB      1               0.0000000000
       121         1  SAPS      C315           -1.1560042218       -2.3027028323        0.4063239473  MEMB      1               0.0000000000
       122         1  SAPS      H15X           -0.7989454701       -1.2506589315        0.4121134083  MEMB      1               0.0000000000
       123         1  SAPS      H15Y           -2.2354960980       -2.0609403204        0.5091344269  MEMB      1               0.0000000000
       124         1  SAPS      C316           -0.9326876161       -3.0972433755       -0.8447000210  MEMB      1               0.0000000000
       125         1  SAPS      H16X           -1.4657857913       -4.0704950441       -0.7907763829  MEMB      1               0.0000000000
       126         1  SAPS      H16Y            0.1569327895       -3.2955965672       -0.9324761122  MEMB      1               0.0000000000
       127         1  SAPS      C317           -1.3121372595       -2.3780447639       -2.1938026388  MEMB      1               0.0000000000
       128         1  SAPS      H17X           -2.4155596059       -2.2641448217       -2.2554977575  MEMB      1               0.0000000000
       129         1  SAPS      H17Y           -0.9471099376       -3.1037799444       -2.9516837529  MEMB      1               0.0000000000
       130         1  SAPS      C318           -0.6457795947       -1.0139327466       -2.3640513023  MEMB      1               0.0000000000
       131         1  SAPS      H18X            0.4534512298       -1.0259027047       -2.2032126903  MEMB      1               0.0000000000
       132         1  SAPS      H18Y           -1.0422438190       -0.2676814770       -1.6427715906  MEMB      1               0.0000000000
       133         1  SAPS      H18Z           -0.7915195570       -0.5484761364       -3.3622656421  MEMB      1               0.0000000000
       134         2  CHL1      C3             -4.5747761477        2.1749480552       17.3343000000  MEMB      2               0.0000000000
       135         2  CHL1      H3             -5.6825205491        2.2096290267       17.4119200000  MEMB      2               0.0000000000
       136         2  CHL1      O3             -4.1293004123        2.1334255648       18.6657000000  MEMB      2               0.0000000000
       137         2  CHL1      H3'            -4.3413937886        3.0070240837       19.0025200000  MEMB      2               0.0000000000
       138         2  CHL1      C4             -4.0941884818        0.8959270489       16.5998100000  MEMB      2               0.0000000000
       139         2  CHL1      H4A            -3.0036029148        0.7013527167       16.6840000000  MEMB      2               0.0000000000
       140         2  CHL1      H4B            -4.6176232389        0.0647968011       17.1190000000  MEMB      2               0.0000000000
       141         2  CHL1      C5             -4.5098618531        1.0200585164       15.1227700000  MEMB      2               0.0000000000
       142         2  CHL1      C6             -5.2669385469        0.1002837243       14.5031400000  MEMB      2               0.0000000000
       143         2  CHL1      H6             -5.6077167809       -0.7855171751       15.0592100000  MEMB      2               0.0000000000
       144         2  CHL1      C7             -5.5687163369        0.0765823919       13.0250700000  MEMB      2               0.0000000000
       145         2  CHL1      H7A            -5.5577677951       -0.9749233633       12.6665500000  MEMB      2               0.0000000000
       146         2  CHL1      H7B            -6.5885408522        0.4765030141       12.8397600000  MEMB      2               0.0000000000
       147         2  CHL1      C8             -4.7062982435        0.9794887661       12.2556300000  MEMB      2               0.0000000000
       148         2  CHL1      H8             -3.7065107410        0.4958465062       12.2268400000  MEMB      2               0.0000000000
       149         2  CHL1      C14            -5.2501366238        1.1570924787       10.8342800000  MEMB      2               0.0000000000
       150         2  CHL1      H14            -6.1547293290        1.7793745329       11.0039800000  MEMB      2               0.0000000000
       151         2  CHL1      C15            -5.6470677233       -0.0400769132       10.0506100000  MEMB      2               0.0000000000
       152         2  CHL1      H15A           -5.0119343624       -0.9387312567       10.2033500000  MEMB      2               0.0000000000
       153         2  CHL1      H15B           -6.6775644643       -0.3790477553       10.2903800000  MEMB      2               0.0000000000
       154         2  CHL1      C16            -5.5503091250        0.5234073118        8.6890800000  MEMB      2               0.0000000000
       155         2  CHL1      H16A           -4.7022394404        0.0417156976        8.1570200000  MEMB      2               0.0000000000
       156         2  CHL1      H16B           -6.4329225759        0.3653652074        8.0330800000  MEMB      2               0.0000000000
       157         2  CHL1      C17            -5.2038863515        2.0809383855        8.7423500000  MEMB      2               0.0000000000
       158         2  CHL1      H17            -6.1690911778        2.6210836632        8.8469300000  MEMB      2               0.0000000000
       159         2  CHL1      C13            -4.4067087789        2.2089253538       10.0582600000  MEMB      2               0.0000000000
       160         2  CHL1      C18            -2.9817873813        1.6866905916        9.7613200000  MEMB      2               0.0000000000
       161         2  CHL1      H18A           -2.9700526488        0.7500717361        9.1638900000  MEMB      2               0.0000000000
       162         2  CHL1      H18B           -2.4901513813        2.4678850962        9.1429700000  MEMB      2               0.0000000000
       163         2  CHL1      H18C           -2.4583446549        1.4895531365       10.7212500000  MEMB      2               0.0000000000
       164         2  CHL1      C12            -4.3656718265        3.6240780350       10.7538100000  MEMB      2               0.0000000000
       165         2  CHL1      H12A           -3.6719940993        4.2649080377       10.1686000000  MEMB      2               0.0000000000
       166         2  CHL1      H12B           -5.4006603900        4.0198213205       10.6731200000  MEMB      2               0.0000000000
       167         2  CHL1      C11            -3.8709372359        3.4782169237       12.1652300000  MEMB      2               0.0000000000
       168         2  CHL1      H11A           -2.7767783386        3.2854846857       12.1663300000  MEMB      2               0.0000000000
       169         2  CHL1      H11B           -4.0525310118        4.4777746176       12.6149200000  MEMB      2               0.0000000000
       170         2  CHL1      C9             -4.5594538156        2.3736105694       12.9239600000  MEMB      2               0.0000000000
       171         2  CHL1      H9             -5.5878737882        2.7547545223       13.1012000000  MEMB      2               0.0000000000
       172         2  CHL1      C10            -3.9577299467        2.2418993170       14.4005200000  MEMB      2               0.0000000000
       173         2  CHL1      C19            -2.4788646863        2.0365643046       14.2851200000  MEMB      2               0.0000000000
       174         2  CHL1      H19A           -2.2032641179        1.1074030585       13.7419600000  MEMB      2               0.0000000000
       175         2  CHL1      H19B           -2.0419274780        2.9679061048       13.8655800000  MEMB      2               0.0000000000
       176         2  CHL1      H19C           -2.0932646856        1.9360680497       15.3222000000  MEMB      2               0.0000000000
       177         2  CHL1      C1             -4.2729809111        3.5109612003       15.1574700000  MEMB      2               0.0000000000
       178         2  CHL1      H1A            -3.7408955031        4.3208067413       14.6140000000  MEMB      2               0.0000000000
       179         2  CHL1      H1B            -5.3704747675        3.6825143414       15.1372100000  MEMB      2               0.0000000000
       180         2  CHL1      C2             -4.0386952629        3.4814620553       16.6845000000  MEMB      2               0.0000000000
       181         2  CHL1      H2A            -4.4055180208        4.3596470850       17.2577000000  MEMB      2               0.0000000000
       182         2  CHL1      H2B            -2.9576137708        3.4711667983       16.9403500000  MEMB      2               0.0000000000
       183         2  CHL1      C20            -4.6063099049        2.7683941363        7.4456400000  MEMB      2               0.0000000000
       184         2  CHL1      H20            -3.6641689614        2.2962510690        7.0938200000  MEMB      2               0.0000000000
       185         2  CHL1      C21            -4.3691708183        4.2874548127        7.6377200000  MEMB      2               0.0000000000
       186         2  CHL1      H21A           -4.1776148734        4.7978702891        6.6696800000  MEMB      2               0.0000000000
       187         2  CHL1      H21B           -3.4745456317        4.5282826448        8.2508900000  MEMB      2               0.0000000000
       188         2  CHL1      H21C           -5.3052731185        4.6802361003        8.0890900000  MEMB      2               0.0000000000
       189         2  CHL1      C22            -5.6147280772        2.5497409160        6.2926200000  MEMB      2               0.0000000000
       190         2  CHL1      H22A           -5.8846286701        1.4730765751        6.2450800000  MEMB      2               0.0000000000
       191         2  CHL1      H22B           -6.5737662194        3.0543920250        6.5373600000  MEMB      2               0.0000000000
       192         2  CHL1      C23            -5.1185924205        2.9833796921        4.9425400000  MEMB      2               0.0000000000
       193         2  CHL1      H23A           -4.7838675742        4.0410800359        4.8828600000  MEMB      2               0.0000000000
       194         2  CHL1      H23B           -4.2320274226        2.3706832244        4.6724700000  MEMB      2               0.0000000000
       195         2  CHL1      C24            -6.1412488305        2.9088120126        3.7476800000  MEMB      2               0.0000000000
       196         2  CHL1      H24A           -6.4456402393        1.8478387685        3.6211200000  MEMB      2               0.0000000000
       197         2  CHL1      H24B           -7.0804122513        3.4507992469        3.9896400000  MEMB      2               0.0000000000
       198         2  CHL1      C25            -5.5884330121        3.4568939440        2.3626300000  MEMB      2               0.0000000000
       199         2  CHL1      H25            -5.2446929829        4.5073664127        2.4751400000  MEMB      2               0.0000000000
       200         2  CHL1      C26            -4.3715178983        2.6464926624        1.8373500000  MEMB      2               0.0000000000
       201         2  CHL1      H26A           -3.7674109400        3.1100747939        1.0283600000  MEMB      2               0.0000000000
       202         2  CHL1      H26B           -3.6747513895        2.3981729578        2.6663100000  MEMB      2               0.0000000000
       203         2  CHL1      H26C           -4.7050227918        1.6905544953        1.3798800000  MEMB      2               0.0000000000
       204         2  CHL1      C27            -6.7792162084        3.3207288343        1.3598400000  MEMB      2               0.0000000000
       205         2  CHL1      H27A           -6.9193735955        2.2302103011        1.2003200000  MEMB      2               0.0000000000
       206         2  CHL1      H27B           -7.6745733980        3.7062683978        1.8927500000  MEMB      2               0.0000000000
       207         2  CHL1      H27C           -6.6360390963        3.8889702099        0.4159500000  MEMB      2               0.0000000000
       208         3  SOPE      N               2.0458611003        8.0220246854       23.0811205261  MEMB      3               0.0000000000
       209         3  SOPE      HN1             2.7926263871        8.2477813081       22.3933884079  MEMB      3               0.0000000000
       210         3  SOPE      HN2             1.6489250673        8.8979128688       23.4771784790  MEMB      3               0.0000000000
       211         3  SOPE      HN3             2.5770946074        7.5519078163       23.8416342406  MEMB      3               0.0000000000
       212         3  SOPE      C12             0.8511776128        7.3489411858       22.4611874310  MEMB      3               0.0000000000
       213         3  SOPE      H12A            0.2711449574        8.1886540316       22.0221366255  MEMB      3               0.0000000000
       214         3  SOPE      H12B            0.2346905025        7.1163711216       23.3557128994  MEMB      3               0.0000000000
       215         3  SOPE      C11             1.2719423844        6.1019062400       21.7100740347  MEMB      3               0.0000000000
       216         3  SOPE      H11A            0.4065959622        5.6608790112       21.1706376554  MEMB      3               0.0000000000
       217         3  SOPE      H11B            1.5288496922        5.2899062108       22.4234993001  MEMB      3               0.0000000000
       218         3  SOPE      P               3.1558350624        5.2882862129       20.1423370185  MEMB      3               0.0000000000
       219         3  SOPE      O13             3.6013336830        4.4268690846       21.2969623828  MEMB      3               0.0000000000
       220         3  SOPE      O14             4.2081760017        5.9252272911       19.2929910940  MEMB      3               0.0000000000
       221         3  SOPE      O12             2.2285735252        6.4862950183       20.7311351107  MEMB      3               0.0000000000
       222         3  SOPE      O11             2.1180307928        4.4608915602       19.2841924015  MEMB      3               0.0000000000
       223         3  SOPE      C1              1.4777569242        5.0586683943       18.2073783137  MEMB      3               0.0000000000
       224         3  SOPE      HA              2.0505736994        5.9266847703       17.8165463895  MEMB      3               0.0000000000
       225         3  SOPE      HB              0.4869513442        5.4158563367       18.5609910858  MEMB      3               0.0000000000
       226         3  SOPE      C2              1.2807840750        4.1057728148       16.9121989594  MEMB      3               0.0000000000
       227         3  SOPE      HS              0.9197092042        3.1358180493       17.3160971902  MEMB      3               0.0000000000
       228         3  SOPE      O21             2.6024507680        4.0454002404       16.2298845675  MEMB      3               0.0000000000
       229         3  SOPE      C21             2.9460793478        2.8828653479       15.7493374777  MEMB      3               0.0000000000
       230         3  SOPE      O22             2.6762220163        1.7724242348       16.1334026057  MEMB      3               0.0000000000
       231         3  SOPE      C22             3.7501792508        3.1036922408       14.4831430903  MEMB      3               0.0000000000
       232         3  SOPE      H2R             4.2581626116        2.1531649224       14.2133798567  MEMB      3               0.0000000000
       233         3  SOPE      H2S             4.5230241357        3.8323187598       14.8089271165  MEMB      3               0.0000000000
       234         3  SOPE      C3              0.1422792366        4.7440080821       15.9151819158  MEMB      3               0.0000000000
       235         3  SOPE      HX             -0.8256004416        5.0128865048       16.3897712010  MEMB      3               0.0000000000
       236         3  SOPE      HY              0.0481031067        3.9565685590       15.1371133600  MEMB      3               0.0000000000
       237         3  SOPE      O31             0.5987831894        5.9796128884       15.3520330554  MEMB      3               0.0000000000
       238         3  SOPE      C31             0.3259592185        6.3090077583       14.0973529330  MEMB      3               0.0000000000
       239         3  SOPE      O32            -0.2990485579        5.5695121696       13.2928811974  MEMB      3               0.0000000000
       240         3  SOPE      C32             0.7415554305        7.7650801364       13.7852296948  MEMB      3               0.0000000000
       241         3  SOPE      H2X             1.8176305169        7.9249500896       13.5597856858  MEMB      3               0.0000000000
       242         3  SOPE      H2Y             0.5637477865        8.4152828118       14.6683727420  MEMB      3               0.0000000000
       243         3  SOPE      C23             2.8507206548        3.6682564020       13.3148987663  MEMB      3               0.0000000000
       244         3  SOPE      H3R             2.6125697589        4.7305423431       13.5366053321  MEMB      3               0.0000000000
       245         3  SOPE      H3S             1.9200978488        3.0658124287       13.2419381417  MEMB      3               0.0000000000
       246         3  SOPE      C24             3.4567965138        3.6479423794       11.9532021569  MEMB      3               0.0000000000
       247         3  SOPE      H4R             4.3612895123        4.2927397909       11.9319945504  MEMB      3               0.0000000000
       248         3  SOPE      H4S             3.7639361129        2.5892915674       11.8144757827  MEMB      3               0.0000000000
       249         3  SOPE      C25             2.5048022269        3.9159547253       10.7696751825  MEMB      3               0.0000000000
       250         3  SOPE      H5R             1.6975961661        3.1594865404       10.8721209828  MEMB      3               0.0000000000
       251         3  SOPE      H5S             1.9777202840        4.8861350372       10.8931883340  MEMB      3               0.0000000000
       252         3  SOPE      C26             3.1880647533        3.7483886390        9.4912919482  MEMB      3               0.0000000000
       253         3  SOPE      H6R             3.7939493643        4.6410053297        9.2258487371  MEMB      3               0.0000000000
       254         3  SOPE      H6S             3.8716130849        2.8855600309        9.3409278095  MEMB      3               0.0000000000
       255         3  SOPE      C27             2.0829777874        3.6171299285        8.3840788282  MEMB      3               0.0000000000
       256         3  SOPE      H7R             1.3600635083        2.7984978043        8.5879349726  MEMB      3               0.0000000000
       257         3  SOPE      H7S             1.4663274525        4.5365177563        8.2903270999  MEMB      3               0.0000000000
       258         3  SOPE      C28             2.8027593451        3.5305228222        6.9926213536  MEMB      3               0.0000000000
       259         3  SOPE      H8R             3.4784055704        4.4046342403        6.8753519223  MEMB      3               0.0000000000
       260         3  SOPE      H8S             3.3584615827        2.5803852247        6.8417756153  MEMB      3               0.0000000000
       261         3  SOPE      C29             1.6940015148        3.5449370295        5.9418408563  MEMB      3               0.0000000000
       262         3  SOPE      H91             0.8568195813        4.1993112800        6.2263064100  MEMB      3               0.0000000000
       263         3  SOPE      C210            1.7574437685        2.9419069530        4.7529988119  MEMB      3               0.0000000000
       264         3  SOPE      H101            0.9068417219        3.1081260417        4.0756156801  MEMB      3               0.0000000000
       265         3  SOPE      C211            2.9231220958        2.1489391981        4.1193319329  MEMB      3               0.0000000000
       266         3  SOPE      H11R            2.5893862191        1.1020014220        3.9554341022  MEMB      3               0.0000000000
       267         3  SOPE      H11S            3.8084807156        2.0428478151        4.7820571395  MEMB      3               0.0000000000
       268         3  SOPE      C212            3.4433242727        2.7038818822        2.7603883462  MEMB      3               0.0000000000
       269         3  SOPE      H12R            2.7751823579        2.2914804484        1.9743647704  MEMB      3               0.0000000000
       270         3  SOPE      H12S            4.4034564900        2.1624138929        2.6215370037  MEMB      3               0.0000000000
       271         3  SOPE      C213            3.5635160134        4.2452419888        2.7112734816  MEMB      3               0.0000000000
       272         3  SOPE      H13R            4.2425336163        4.6565133868        3.4885204258  MEMB      3               0.0000000000
       273         3  SOPE      H13S            2.5754493823        4.7043556429        2.9286666512  MEMB      3               0.0000000000
       274         3  SOPE      C214            4.0197918149        4.8092557793        1.3563479264  MEMB      3               0.0000000000
       275         3  SOPE      H14R            4.0507691017        5.9083260879        1.5157409229  MEMB      3               0.0000000000
       276         3  SOPE      H14S            3.3313849619        4.5604290608        0.5205838112  MEMB      3               0.0000000000
       277         3  SOPE      C215            5.3690791794        4.1785971893        0.9107119014  MEMB      3               0.0000000000
       278         3  SOPE      H15R            5.3456149856        3.0685354280        0.8715537352  MEMB      3               0.0000000000
       279         3  SOPE      H15S            6.0769482544        4.3062482804        1.7574390292  MEMB      3               0.0000000000
       280         3  SOPE      C216            5.9263754751        4.7500298199       -0.3492834752  MEMB      3               0.0000000000
       281         3  SOPE      H16R            5.7419846057        5.8425005523       -0.2666469574  MEMB      3               0.0000000000
       282         3  SOPE      H16S            5.2915020391        4.4669338532       -1.2159513116  MEMB      3               0.0000000000
       283         3  SOPE      C217            7.3875991030        4.2923600740       -0.5553315298  MEMB      3               0.0000000000
       284         3  SOPE      H17R            7.3651286128        3.2610042545       -0.9677898106  MEMB      3               0.0000000000
       285         3  SOPE      H17S            7.9182567712        4.2043833854        0.4167708494  MEMB      3               0.0000000000
       286         3  SOPE      C218            8.2504667174        5.1390647691       -1.4925916879  MEMB      3               0.0000000000
       287         3  SOPE      H18R            9.2953325011        4.7661511505       -1.4333325168  MEMB      3               0.0000000000
       288         3  SOPE      H18S            8.3508598449        6.1903872648       -1.1476823820  MEMB      3               0.0000000000
       289         3  SOPE      H18T            7.8676253405        5.0933694934       -2.5345453865  MEMB      3               0.0000000000
       290         3  SOPE      C33            -0.1582107724        8.2749488508       12.6066374926  MEMB      3               0.0000000000
       291         3  SOPE      H3X            -1.2214891882        8.1968253524       12.9191379957  MEMB      3               0.0000000000
       292         3  SOPE      H3Y            -0.0259072022        7.6678234022       11.6856507742  MEMB      3               0.0000000000
       293         3  SOPE      C34             0.0353809611        9.7327429505       12.2742798539  MEMB      3               0.0000000000
       294         3  SOPE      H4X            -0.1768855835       10.3564487430       13.1688499776  MEMB      3               0.0000000000
       295         3  SOPE      H4Y            -0.6852731610       10.0545072014       11.4923296948  MEMB      3               0.0000000000
       296         3  SOPE      C35             1.4072467470       10.1703592941       11.7972902115  MEMB      3               0.0000000000
       297         3  SOPE      H5X             1.9992339229       10.2321836942       12.7354003998  MEMB      3               0.0000000000
       298         3  SOPE      H5Y             1.3302634268       11.2265571956       11.4613737880  MEMB      3               0.0000000000
       299         3  SOPE      C36             2.2688373979        9.2810805605       10.8775674338  MEMB      3               0.0000000000
       300         3  SOPE      H6X             2.1981533080        8.2405910084       11.2605905816  MEMB      3               0.0000000000
       301         3  SOPE      H6Y             3.3019524653        9.6225313565       10.6530554029  MEMB      3               0.0000000000
       302         3  SOPE      C37             1.8102004895        9.1899927993        9.4154006233  MEMB      3               0.0000000000
       303         3  SOPE      H7X             1.9749094553       10.2017420859        8.9869662119  MEMB      3               0.0000000000
       304         3  SOPE      H7Y             0.7302401574        8.9297596268        9.3985019942  MEMB      3               0.0000000000
       305         3  SOPE      C38             2.5218757670        8.1698557048        8.5110874113  MEMB      3               0.0000000000
       306         3  SOPE      H8X             2.5509474034        7.1617966443        8.9772343817  MEMB      3               0.0000000000
       307         3  SOPE      H8Y             3.5577287804        8.4341238587        8.2086108422  MEMB      3               0.0000000000
       308         3  SOPE      C39             1.6945751456        7.7779550049        7.2322849482  MEMB      3               0.0000000000
       309         3  SOPE      H9X             0.6320553896        8.0401743144        7.4236319593  MEMB      3               0.0000000000
       310         3  SOPE      H9Y             1.9330287175        6.7335544429        6.9378559232  MEMB      3               0.0000000000
       311         3  SOPE      C310            2.1525843351        8.5699593410        5.9665009751  MEMB      3               0.0000000000
       312         3  SOPE      H10X            3.1466110878        8.2307053949        5.6043706497  MEMB      3               0.0000000000
       313         3  SOPE      H10Y            2.3266669632        9.6501671605        6.1592893992  MEMB      3               0.0000000000
       314         3  SOPE      C311            1.1930904548        8.5526634923        4.7400842475  MEMB      3               0.0000000000
       315         3  SOPE      H11X            0.1978282024        8.8026595077        5.1658480975  MEMB      3               0.0000000000
       316         3  SOPE      H11Y            1.0349175090        7.5260982908        4.3457926554  MEMB      3               0.0000000000
       317         3  SOPE      C312            1.6527268958        9.5612834331        3.6538622346  MEMB      3               0.0000000000
       318         3  SOPE      H12X            1.9070961526       10.5706846746        4.0420967984  MEMB      3               0.0000000000
       319         3  SOPE      H12Y            0.9077870540        9.7315888114        2.8473995561  MEMB      3               0.0000000000
       320         3  SOPE      C313            2.9296591018        9.0330442354        2.8550358066  MEMB      3               0.0000000000
       321         3  SOPE      H13X            2.6505992601        7.9945775986        2.5756910509  MEMB      3               0.0000000000
       322         3  SOPE      H13Y            3.8358232615        8.9901059947        3.4963964615  MEMB      3               0.0000000000
       323         3  SOPE      C314            3.1925103319        9.7352431785        1.4736715586  MEMB      3               0.0000000000
       324         3  SOPE      H14X            2.8241805950       10.7822250673        1.4238360890  MEMB      3               0.0000000000
       325         3  SOPE      H14Y            2.5730975940        9.3685300568        0.6274033556  MEMB      3               0.0000000000
       326         3  SOPE      C315            4.6317020042        9.5476324922        0.9949055725  MEMB      3               0.0000000000
       327         3  SOPE      H15X            5.0940951386        8.7206565457        1.5750983298  MEMB      3               0.0000000000
       328         3  SOPE      H15Y            5.3162056633       10.3625616673        1.3137562854  MEMB      3               0.0000000000
       329         3  SOPE      C316            4.7655985634        9.2567295297       -0.4662408528  MEMB      3               0.0000000000
       330         3  SOPE      H16X            4.6585513228       10.2019364573       -1.0402138921  MEMB      3               0.0000000000
       331         3  SOPE      H16Y            4.0275899140        8.5219489896       -0.8532313052  MEMB      3               0.0000000000
       332         3  SOPE      C317            6.2279944969        8.8368543728       -1.0178937269  MEMB      3               0.0000000000
       333         3  SOPE      H17X            6.0103110241        8.3498362298       -1.9924454658  MEMB      3               0.0000000000
       334         3  SOPE      H17Y            6.6243739473        8.0367667432       -0.3567864335  MEMB      3               0.0000000000
       335         3  SOPE      C318            7.2499183113        9.9720586442       -1.2452689368  MEMB      3               0.0000000000
       336         3  SOPE      H18X            6.7213959060       10.7234678406       -1.8700641848  MEMB      3               0.0000000000
       337         3  SOPE      H18Y            8.1457065739        9.5255651340       -1.7274818093  MEMB      3               0.0000000000
       338         3  SOPE      H18Z            7.5425317707       10.3279089048       -0.2342955659  MEMB      3               0.0000000000
       339         4  CHL1      C3             -3.8354566854       -5.8106559976       17.3027450000  MEMB      4               0.0000000000
       340         4  CHL1      H3             -2.9516791728       -6.4532841068       17.1020350000  MEMB      4               0.0000000000
       341         4  CHL1      O3             -4.1719478346       -5.6504380424       18.6972550000  MEMB      4               0.0000000000
       342         4  CHL1      H3'            -3.5191909790       -5.0046161712       18.9772650000  MEMB      4               0.0000000000
       343         4  CHL1      C4             -3.6469869066       -4.4515212916       16.6348850000  MEMB      4               0.0000000000
       344         4  CHL1      H4A            -4.5892644783       -3.9012648636       16.8438050000  MEMB      4               0.0000000000
       345         4  CHL1      H4B            -2.8636830458       -3.7756326960       17.0397750000  MEMB      4               0.0000000000
       346         4  CHL1      C5             -3.4690240657       -4.5402310822       15.1261950000  MEMB      4               0.0000000000
       347         4  CHL1      C6             -2.4419666973       -3.9580593407       14.4845750000  MEMB      4               0.0000000000
       348         4  CHL1      H6             -1.6518431873       -3.4634816518       15.0686050000  MEMB      4               0.0000000000
       349         4  CHL1      C7             -2.3635239309       -3.9528750859       13.0228050000  MEMB      4               0.0000000000
       350         4  CHL1      H7A            -1.8089710191       -3.0295928723       12.7501750000  MEMB      4               0.0000000000
       351         4  CHL1      H7B            -1.7129406524       -4.8096647680       12.7453450000  MEMB      4               0.0000000000
       352         4  CHL1      C8             -3.7455092983       -4.0965637105       12.3515250000  MEMB      4               0.0000000000
       353         4  CHL1      H8             -4.3585780236       -3.1916819751       12.5506250000  MEMB      4               0.0000000000
       354         4  CHL1      C14            -3.5008094347       -4.3562593050       10.8560650000  MEMB      4               0.0000000000
       355         4  CHL1      H14            -2.8941015658       -5.2838072158       10.7793750000  MEMB      4               0.0000000000
       356         4  CHL1      C15            -2.5832153200       -3.4147584795       10.0662050000  MEMB      4               0.0000000000
       357         4  CHL1      H15A           -2.9395105903       -2.4353003454       10.4509450000  MEMB      4               0.0000000000
       358         4  CHL1      H15B           -1.4876994492       -3.5574381270       10.1837150000  MEMB      4               0.0000000000
       359         4  CHL1      C16            -2.9109646447       -3.7176161388        8.5709150000  MEMB      4               0.0000000000
       360         4  CHL1      H16A           -3.3232496262       -2.8222408045        8.0584350000  MEMB      4               0.0000000000
       361         4  CHL1      H16B           -2.0406450080       -4.0010202554        7.9412050000  MEMB      4               0.0000000000
       362         4  CHL1      C17            -4.1969907284       -4.7549646282        8.6154950000  MEMB      4               0.0000000000
       363         4  CHL1      H17            -3.7799090524       -5.7847043990        8.6151150000  MEMB      4               0.0000000000
       364         4  CHL1      C13            -4.7551638405       -4.6633535750       10.0422750000  MEMB      4               0.0000000000
       365         4  CHL1      C18            -5.6064844987       -3.4291090334       10.1039150000  MEMB      4               0.0000000000
       366         4  CHL1      H18A           -5.6280819148       -2.9639355718       11.1126050000  MEMB      4               0.0000000000
       367         4  CHL1      H18B           -5.2661919897       -2.6379034803        9.4021150000  MEMB      4               0.0000000000
       368         4  CHL1      H18C           -6.6591021461       -3.6776876063        9.8499050000  MEMB      4               0.0000000000
       369         4  CHL1      C12            -5.4131759051       -5.9326551879       10.6297850000  MEMB      4               0.0000000000
       370         4  CHL1      H12A           -6.2572902166       -6.4104027179       10.0879750000  MEMB      4               0.0000000000
       371         4  CHL1      H12B           -4.6371045415       -6.7261512314       10.6786050000  MEMB      4               0.0000000000
       372         4  CHL1      C11            -5.7510702751       -5.6218306645       12.1108550000  MEMB      4               0.0000000000
       373         4  CHL1      H11A           -6.5523567410       -4.8603031356       12.2219650000  MEMB      4               0.0000000000
       374         4  CHL1      H11B           -6.2764575497       -6.5167316290       12.5076350000  MEMB      4               0.0000000000
       375         4  CHL1      C9             -4.5010086533       -5.2767917229       12.9400250000  MEMB      4               0.0000000000
       376         4  CHL1      H9             -3.7961465038       -6.1325146923       12.8677450000  MEMB      4               0.0000000000
       377         4  CHL1      C10            -4.7144962089       -5.1067170096       14.4476650000  MEMB      4               0.0000000000
       378         4  CHL1      C19            -6.0524503472       -4.2998176625       14.6553450000  MEMB      4               0.0000000000
       379         4  CHL1      H19A           -6.8895406967       -4.7904955969       14.1142050000  MEMB      4               0.0000000000
       380         4  CHL1      H19B           -6.2959976486       -4.2188944466       15.7362950000  MEMB      4               0.0000000000
       381         4  CHL1      H19C           -5.8751312768       -3.2305485663       14.4113150000  MEMB      4               0.0000000000
       382         4  CHL1      C1             -4.8758245398       -6.5281217558       15.0480250000  MEMB      4               0.0000000000
       383         4  CHL1      H1A            -5.6676034106       -7.1644746156       14.5980550000  MEMB      4               0.0000000000
       384         4  CHL1      H1B            -3.9712060762       -7.1323930408       14.8225550000  MEMB      4               0.0000000000
       385         4  CHL1      C2             -5.0579144579       -6.4960027501       16.5804350000  MEMB      4               0.0000000000
       386         4  CHL1      H2A            -5.0753386569       -7.5243348434       17.0006350000  MEMB      4               0.0000000000
       387         4  CHL1      H2B            -6.0000213462       -5.9473324076       16.7942350000  MEMB      4               0.0000000000
       388         4  CHL1      C20            -5.0654832508       -4.6042774063        7.3264850000  MEMB      4               0.0000000000
       389         4  CHL1      H20            -5.6217120722       -3.6557285273        7.4852250000  MEMB      4               0.0000000000
       390         4  CHL1      C21            -6.0624041881       -5.7690389359        7.2843250000  MEMB      4               0.0000000000
       391         4  CHL1      H21A           -6.8863076363       -5.4385490417        7.9523850000  MEMB      4               0.0000000000
       392         4  CHL1      H21B           -5.6577177761       -6.6772463331        7.7800150000  MEMB      4               0.0000000000
       393         4  CHL1      H21C           -6.4691691623       -5.9449259197        6.2655450000  MEMB      4               0.0000000000
       394         4  CHL1      C22            -4.2700182279       -4.6109572436        6.0650350000  MEMB      4               0.0000000000
       395         4  CHL1      H22A           -3.2912498357       -4.0878560394        6.1171850000  MEMB      4               0.0000000000
       396         4  CHL1      H22B           -3.9035637966       -5.6400857144        5.8627550000  MEMB      4               0.0000000000
       397         4  CHL1      C23            -5.0575957190       -4.1516116004        4.8158850000  MEMB      4               0.0000000000
       398         4  CHL1      H23A           -5.9673340300       -4.7756190402        4.6843050000  MEMB      4               0.0000000000
       399         4  CHL1      H23B           -5.4246486480       -3.1277052652        5.0421850000  MEMB      4               0.0000000000
       400         4  CHL1      C24            -4.2896998570       -4.2088807633        3.5144650000  MEMB      4               0.0000000000
       401         4  CHL1      H24A           -4.7611652579       -3.6069541182        2.7084150000  MEMB      4               0.0000000000
       402         4  CHL1      H24B           -3.2602329251       -3.8362899859        3.7033850000  MEMB      4               0.0000000000
       403         4  CHL1      C25            -4.1184109134       -5.5565679078        2.8340150000  MEMB      4               0.0000000000
       404         4  CHL1      H25            -3.6272094025       -6.1856205656        3.6068850000  MEMB      4               0.0000000000
       405         4  CHL1      C26            -5.5752822010       -6.1184551592        2.5038450000  MEMB      4               0.0000000000
       406         4  CHL1      H26A           -6.0369616536       -5.3719013181        1.8228050000  MEMB      4               0.0000000000
       407         4  CHL1      H26B           -5.5104534153       -7.1161636751        2.0193850000  MEMB      4               0.0000000000
       408         4  CHL1      H26C           -6.1579757753       -6.1875865339        3.4472450000  MEMB      4               0.0000000000
       409         4  CHL1      C27            -3.3531437253       -5.4917436971        1.5635850000  MEMB      4               0.0000000000
       410         4  CHL1      H27A           -3.5763590046       -4.6532123076        0.8697750000  MEMB      4               0.0000000000
       411         4  CHL1      H27B           -2.2678796369       -5.4653745813        1.7998850000  MEMB      4               0.0000000000
       412         4  CHL1      H27C           -3.6215594022       -6.3531318628        0.9152850000  MEMB      4               0.0000000000
       413         5  SAPC      N               9.7442480638        3.6391319499       21.4718263503  MEMB      5               0.0000000000
       414         5  SAPC      C12             9.3095346057        3.9850728949       20.0681463872  MEMB      5               0.0000000000
       415         5  SAPC      H12A            9.7973059341        4.8592146543       19.6627387414  MEMB      5               0.0000000000
       416         5  SAPC      H12B            8.3260827558        4.3763675423       20.2828805903  MEMB      5               0.0000000000
       417         5  SAPC      C13             9.5131135055        4.9658814689       22.2385625641  MEMB      5               0.0000000000
       418         5  SAPC      H13A            8.4761476083        5.2362028459       22.1042933233  MEMB      5               0.0000000000
       419         5  SAPC      H13B            9.7516760430        4.7413119923       23.2676673081  MEMB      5               0.0000000000
       420         5  SAPC      H13C           10.1914227237        5.7419095406       21.9159523592  MEMB      5               0.0000000000
       421         5  SAPC      C14             8.8085341665        2.6128993717       22.0822152094  MEMB      5               0.0000000000
       422         5  SAPC      H14A            8.9730933476        2.6608492482       23.1485270060  MEMB      5               0.0000000000
       423         5  SAPC      H14B            7.8141497319        2.9960438300       21.9067165543  MEMB      5               0.0000000000
       424         5  SAPC      H14C            8.9730757128        1.6630252089       21.5953218284  MEMB      5               0.0000000000
       425         5  SAPC      C15            11.1915223782        3.4038898917       21.4779838731  MEMB      5               0.0000000000
       426         5  SAPC      H15A           11.4329595273        2.4051662820       21.1453290805  MEMB      5               0.0000000000
       427         5  SAPC      H15B           11.5534517725        4.0421290142       20.6854829758  MEMB      5               0.0000000000
       428         5  SAPC      H15C           11.6712138410        3.5322616097       22.4370545958  MEMB      5               0.0000000000
       429         5  SAPC      C11             9.5340736065        2.9071100899       19.0601318237  MEMB      5               0.0000000000
       430         5  SAPC      H11A           10.4671591307        3.0913656872       18.4859171919  MEMB      5               0.0000000000
       431         5  SAPC      H11B            8.8578411009        3.0346020609       18.1879067963  MEMB      5               0.0000000000
       432         5  SAPC      P               9.6374895459        0.3204757479       18.7227040190  MEMB      5               0.0000000000
       433         5  SAPC      O13            10.1411860885       -0.7431340119       19.5705861667  MEMB      5               0.0000000000
       434         5  SAPC      O14             8.4181265237       -0.0324538358       17.9555978764  MEMB      5               0.0000000000
       435         5  SAPC      O12             9.3165603279        1.5669097285       19.6358618962  MEMB      5               0.0000000000
       436         5  SAPC      O11            10.8031200805        0.7719696504       17.7163838322  MEMB      5               0.0000000000
       437         5  SAPC      C1             12.1499592529        0.5991836044       18.3545844789  MEMB      5               0.0000000000
       438         5  SAPC      HA             12.2992890396        1.2455406529       19.2457882915  MEMB      5               0.0000000000
       439         5  SAPC      HB             12.3731344283       -0.4702857226       18.5564492361  MEMB      5               0.0000000000
       440         5  SAPC      C2             13.2853529745        1.0108343220       17.3513294983  MEMB      5               0.0000000000
       441         5  SAPC      HS             14.1411607925        1.1059299355       18.0533770719  MEMB      5               0.0000000000
       442         5  SAPC      O21            13.1584496121        2.2884427742       16.5991731987  MEMB      5               0.0000000000
       443         5  SAPC      C21            13.2703223171        3.4281399669       17.3451419597  MEMB      5               0.0000000000
       444         5  SAPC      O22            13.7250685214        3.5201970191       18.4382964501  MEMB      5               0.0000000000
       445         5  SAPC      C22            12.8305176978        4.6068391665       16.3950949315  MEMB      5               0.0000000000
       446         5  SAPC      H2R            13.0724935637        5.5494942461       16.9309775363  MEMB      5               0.0000000000
       447         5  SAPC      H2S            13.4560473940        4.5365782077       15.4796188457  MEMB      5               0.0000000000
       448         5  SAPC      C3             13.5272024001       -0.0066292172       16.2715207809  MEMB      5               0.0000000000
       449         5  SAPC      HX             13.6762075295       -0.9531846975       16.8337936953  MEMB      5               0.0000000000
       450         5  SAPC      HY             14.4486650666        0.2410997622       15.7024352161  MEMB      5               0.0000000000
       451         5  SAPC      O31            12.4279964799       -0.1534518568       15.3607896807  MEMB      5               0.0000000000
       452         5  SAPC      C31            11.8886851349       -1.4249996415       15.1217539506  MEMB      5               0.0000000000
       453         5  SAPC      O32            12.3116154418       -2.5053574844       15.5179170479  MEMB      5               0.0000000000
       454         5  SAPC      C32            10.6990703510       -1.3518195021       14.1206807979  MEMB      5               0.0000000000
       455         5  SAPC      H2X             9.8816797424       -0.9772627995       14.7732919529  MEMB      5               0.0000000000
       456         5  SAPC      H2Y            10.4030562090       -2.3879536702       13.8502696225  MEMB      5               0.0000000000
       457         5  SAPC      C23            11.3257357411        4.5238833934       16.0965486588  MEMB      5               0.0000000000
       458         5  SAPC      H3R            10.9989837665        5.4694316899       15.6133377480  MEMB      5               0.0000000000
       459         5  SAPC      H3S            10.7043350089        4.3909477022       17.0078719483  MEMB      5               0.0000000000
       460         5  SAPC      C24            10.7023901719        3.3622959455       15.2293902354  MEMB      5               0.0000000000
       461         5  SAPC      H4R            10.9357037828        2.3133889228       15.5116669318  MEMB      5               0.0000000000
       462         5  SAPC      H4S            11.1409906048        3.5878822290       14.2338695030  MEMB      5               0.0000000000
       463         5  SAPC      C25             9.1436102798        3.4081240322       15.0238913006  MEMB      5               0.0000000000
       464         5  SAPC      H5R             8.5904653140        3.4879264312       15.9713417188  MEMB      5               0.0000000000
       465         5  SAPC      C26             8.5261831891        3.2244187149       13.8620113374  MEMB      5               0.0000000000
       466         5  SAPC      H6R             7.4359273376        3.1226220965       13.9667948080  MEMB      5               0.0000000000
       467         5  SAPC      C27             9.0967116746        2.9749072590       12.4541467748  MEMB      5               0.0000000000
       468         5  SAPC      H7R             8.9208299617        1.9433792278       12.0808688719  MEMB      5               0.0000000000
       469         5  SAPC      H7S            10.2009840540        3.0964792745       12.4652767049  MEMB      5               0.0000000000
       470         5  SAPC      C28             8.5337526600        4.0556446569       11.5615957815  MEMB      5               0.0000000000
       471         5  SAPC      H8R             8.1752727427        4.9369065971       12.1137456518  MEMB      5               0.0000000000
       472         5  SAPC      C29             8.2156729026        3.8908765603       10.2844774112  MEMB      5               0.0000000000
       473         5  SAPC      H9R             7.6886432281        4.6133913767        9.6439992728  MEMB      5               0.0000000000
       474         5  SAPC      C210            8.4548383229        2.5017160371        9.5165943261  MEMB      5               0.0000000000
       475         5  SAPC      H10R            8.0338460415        1.7006315837       10.1610711557  MEMB      5               0.0000000000
       476         5  SAPC      H10S            9.5651761168        2.5033860681        9.4782784187  MEMB      5               0.0000000000
       477         5  SAPC      C211            7.8221078364        2.4004625049        8.1305803646  MEMB      5               0.0000000000
       478         5  SAPC      H11R            6.7768517636        2.0694926697        8.2194553372  MEMB      5               0.0000000000
       479         5  SAPC      C212            8.3224029949        2.5194847596        6.8903565640  MEMB      5               0.0000000000
       480         5  SAPC      H12R            7.6824092649        2.3662610691        6.0089192479  MEMB      5               0.0000000000
       481         5  SAPC      C213            9.7277204969        2.8035174128        6.4500099250  MEMB      5               0.0000000000
       482         5  SAPC      H13R           10.3040748176        3.4565449158        7.1397137904  MEMB      5               0.0000000000
       483         5  SAPC      H13S            9.6530684103        3.2954463084        5.4566551008  MEMB      5               0.0000000000
       484         5  SAPC      C214           10.4649616627        1.4983686637        6.5017532616  MEMB      5               0.0000000000
       485         5  SAPC      H14R           10.9882652540        1.2704180639        7.4420678893  MEMB      5               0.0000000000
       486         5  SAPC      C215           10.4794152645        0.5216018693        5.5916863664  MEMB      5               0.0000000000
       487         5  SAPC      H15R           11.0973148619       -0.3654678387        5.7949286163  MEMB      5               0.0000000000
       488         5  SAPC      C216            9.7972795837        0.4688039201        4.2420277133  MEMB      5               0.0000000000
       489         5  SAPC      H16R           10.6429017976        0.2935262511        3.5430847052  MEMB      5               0.0000000000
       490         5  SAPC      H16S            9.2921740723        1.4251385614        3.9878362170  MEMB      5               0.0000000000
       491         5  SAPC      C217            8.7339344277       -0.6642474358        4.1530225883  MEMB      5               0.0000000000
       492         5  SAPC      H17R            7.9123645439       -0.6638370526        4.9009150156  MEMB      5               0.0000000000
       493         5  SAPC      H17S            9.2192138094       -1.6534906864        4.2952291159  MEMB      5               0.0000000000
       494         5  SAPC      C218            8.0434829367       -0.6615624394        2.7934631513  MEMB      5               0.0000000000
       495         5  SAPC      H18R            7.2979538185       -1.4825608640        2.8603178263  MEMB      5               0.0000000000
       496         5  SAPC      H18S            8.8130288484       -0.7938985009        2.0031427078  MEMB      5               0.0000000000
       497         5  SAPC      C219            7.2500751664        0.6393174473        2.3713838073  MEMB      5               0.0000000000
       498         5  SAPC      H19R            7.9987729431        1.4546549173        2.4662380633  MEMB      5               0.0000000000
       499         5  SAPC      H19S            6.4082299983        0.7066438650        3.0932461778  MEMB      5               0.0000000000
       500         5  SAPC      C220            6.7151017340        0.4937496487        0.9554498634  MEMB      5               0.0000000000
       501         5  SAPC      H20R            5.9788626008        1.3170151060        0.8350046569  MEMB      5               0.0000000000
       502         5  SAPC      H20S            6.0213211500       -0.3456693722        0.7355274162  MEMB      5               0.0000000000
       503         5  SAPC      H20T            7.5684494232        0.5827770134        0.2496219866  MEMB      5               0.0000000000
       504         5  SAPC      C33            10.8307860422       -0.3619689995       13.0198592580  MEMB      5               0.0000000000
       505         5  SAPC      H3X            11.0679982300        0.6085959201       13.5057146117  MEMB      5               0.0000000000
       506         5  SAPC      H3Y             9.8003101802       -0.3651965303       12.6046121957  MEMB      5               0.0000000000
       507         5  SAPC      C34            11.7403811217       -0.7841247795       11.9094806269  MEMB      5               0.0000000000
       508         5  SAPC      H4X            11.2367886649       -1.6358072344       11.4041559869  MEMB      5               0.0000000000
       509         5  SAPC      H4Y            12.5644180466       -1.2395207185       12.4993098233  MEMB      5               0.0000000000
       510         5  SAPC      C35            12.2479288367        0.4005302488       11.0159171098  MEMB      5               0.0000000000
       511         5  SAPC      H5X            11.4228093322        1.0087117779       10.5874148283  MEMB      5               0.0000000000
       512         5  SAPC      H5Y            12.7940813448       -0.0799967216       10.1761953954  MEMB      5               0.0000000000
       513         5  SAPC      C36            13.2047044812        1.3627810252       11.7416565706  MEMB      5               0.0000000000
       514         5  SAPC      H6X            14.0837645915        0.7805846536       12.0918300424  MEMB      5               0.0000000000
       515         5  SAPC      H6Y            12.7620832256        1.7585043924       12.6807038954  MEMB      5               0.0000000000
       516         5  SAPC      C37            13.7377162842        2.5340558331       10.8322461327  MEMB      5               0.0000000000
       517         5  SAPC      H7X            14.3037788949        2.0914818635        9.9848841117  MEMB      5               0.0000000000
       518         5  SAPC      H7Y            14.5366379494        3.0174649228       11.4342098526  MEMB      5               0.0000000000
       519         5  SAPC      C38            12.7635553282        3.6260393432       10.3085189580  MEMB      5               0.0000000000
       520         5  SAPC      H8X            12.3010728525        4.0842305208       11.2087921453  MEMB      5               0.0000000000
       521         5  SAPC      H8Y            12.0132444870        3.1682198557        9.6289924666  MEMB      5               0.0000000000
       522         5  SAPC      C39            13.4319177509        4.8871159434        9.6521664084  MEMB      5               0.0000000000
       523         5  SAPC      H9X            14.2004230420        5.2423375730       10.3715672726  MEMB      5               0.0000000000
       524         5  SAPC      H9Y            12.6989090314        5.7117187459        9.5215934220  MEMB      5               0.0000000000
       525         5  SAPC      C310           14.1003767996        4.6298633721        8.3335277518  MEMB      5               0.0000000000
       526         5  SAPC      H10X           14.4624792829        3.5811169817        8.2757877206  MEMB      5               0.0000000000
       527         5  SAPC      H10Y           14.9217256690        5.3231713952        8.0524044102  MEMB      5               0.0000000000
       528         5  SAPC      C311           13.0888934383        4.6565420288        7.1379743318  MEMB      5               0.0000000000
       529         5  SAPC      H11X           12.1853120095        5.2444382752        7.4067480970  MEMB      5               0.0000000000
       530         5  SAPC      H11Y           12.7689547783        3.5936140138        7.0916656663  MEMB      5               0.0000000000
       531         5  SAPC      C312           13.7101003766        5.1332497068        5.7921402824  MEMB      5               0.0000000000
       532         5  SAPC      H12X           14.4724342973        4.4309042102        5.3922919902  MEMB      5               0.0000000000
       533         5  SAPC      H12Y           14.3038984192        6.0410761363        6.0320921533  MEMB      5               0.0000000000
       534         5  SAPC      C313           12.7028401475        5.5470625830        4.7207085288  MEMB      5               0.0000000000
       535         5  SAPC      H13X           13.1775486877        6.2475610827        4.0007951227  MEMB      5               0.0000000000
       536         5  SAPC      H13Y           11.8750334622        6.0899834746        5.2249837464  MEMB      5               0.0000000000
       537         5  SAPC      C314           12.1562187229        4.3470161241        3.9506676910  MEMB      5               0.0000000000
       538         5  SAPC      H14X           11.5862395696        3.6583838957        4.6103872658  MEMB      5               0.0000000000
       539         5  SAPC      H14Y           12.9848943724        3.7245389472        3.5504925887  MEMB      5               0.0000000000
       540         5  SAPC      C315           11.1267032152        4.7991917308        2.8646640960  MEMB      5               0.0000000000
       541         5  SAPC      H15X           11.6681280730        5.4450913700        2.1407893765  MEMB      5               0.0000000000
       542         5  SAPC      H15Y           10.2544432325        5.3056115031        3.3305211932  MEMB      5               0.0000000000
       543         5  SAPC      C316           10.5787685052        3.6045102548        2.0662636744  MEMB      5               0.0000000000
       544         5  SAPC      H16X            9.8893541030        4.0371804904        1.3100726473  MEMB      5               0.0000000000
       545         5  SAPC      H16Y            9.8779138451        2.9533560669        2.6311726260  MEMB      5               0.0000000000
       546         5  SAPC      C317           11.6046858909        2.6489736286        1.3661245771  MEMB      5               0.0000000000
       547         5  SAPC      H17X           11.0841232063        1.8361883082        0.8159290852  MEMB      5               0.0000000000
       548         5  SAPC      H17Y           12.1531827243        2.0989459448        2.1604424717  MEMB      5               0.0000000000
       549         5  SAPC      C318           12.5980666026        3.5154315025        0.5719364394  MEMB      5               0.0000000000
       550         5  SAPC      H18X           13.3905599070        4.0182298169        1.1664696627  MEMB      5               0.0000000000
       551         5  SAPC      H18Y           11.9523747487        4.1669830886       -0.0548666416  MEMB      5               0.0000000000
       552         5  SAPC      H18Z           13.1746955463        2.8530454572       -0.1085514761  MEMB      5               0.0000000000
       553         6  OSM       N               1.7295684084       -8.4881727153       22.3935697358  MEMB      6               0.0000000000
       554         6  OSM       C15             2.8556047803       -7.7130619357       21.8167282863  MEMB      6               0.0000000000
       555         6  OSM       H15A            3.5201977922       -7.4637813249       22.6307155973  MEMB      6               0.0000000000
       556         6  OSM       H15B            2.5626718841       -6.7682311631       21.3832713026  MEMB      6               0.0000000000
       557         6  OSM       H15C            3.3589097384       -8.2210561769       21.0073913839  MEMB      6               0.0000000000
       558         6  OSM       C14             1.3066382882       -7.8020827624       23.7023271700  MEMB      6               0.0000000000
       559         6  OSM       H14A            2.1404603355       -7.7644278634       24.3876906426  MEMB      6               0.0000000000
       560         6  OSM       H14B            0.4486350352       -8.3180209299       24.1073435624  MEMB      6               0.0000000000
       561         6  OSM       H14C            1.0306397990       -6.7752011782       23.5132796067  MEMB      6               0.0000000000
       562         6  OSM       C13             0.5054401528       -8.3710015592       21.5357432356  MEMB      6               0.0000000000
       563         6  OSM       H13A            0.7551469570       -8.9824449897       20.6812354839  MEMB      6               0.0000000000
       564         6  OSM       H13B            0.4794627411       -7.3135351626       21.3178217816  MEMB      6               0.0000000000
       565         6  OSM       H13C           -0.3718967720       -8.5958132482       22.1240794382  MEMB      6               0.0000000000
       566         6  OSM       C12             2.0837217299       -9.9597100650       22.6446941215  MEMB      6               0.0000000000
       567         6  OSM       H12A            1.2301458779      -10.3374319628       23.1879567185  MEMB      6               0.0000000000
       568         6  OSM       H12B            2.9221064160      -10.0237265025       23.3224943271  MEMB      6               0.0000000000
       569         6  OSM       C11             2.4023729583      -10.9888629937       21.5639470783  MEMB      6               0.0000000000
       570         6  OSM       H11A            1.5434931161      -11.2316945174       20.9023737541  MEMB      6               0.0000000000
       571         6  OSM       H11B            2.6960372170      -11.9622962429       22.0117306513  MEMB      6               0.0000000000
       572         6  OSM       P               3.9557971399      -11.1659778142       19.4647500329  MEMB      6               0.0000000000
       573         6  OSM       O13             4.9839314706      -10.2520622252       18.8701557813  MEMB      6               0.0000000000
       574         6  OSM       O14             4.4680504268      -12.5629456210       19.6366447940  MEMB      6               0.0000000000
       575         6  OSM       O11             2.6525333206      -11.1972106066       18.5915945616  MEMB      6               0.0000000000
       576         6  OSM       O12             3.4778701507      -10.4533057120       20.7798452029  MEMB      6               0.0000000000
       577         6  OSM       C1S             1.7601922403      -10.1079647933       18.3842840524  MEMB      6               0.0000000000
       578         6  OSM       H1S             2.0167858157       -9.2039593446       18.9769515134  MEMB      6               0.0000000000
       579         6  OSM       H1T             0.7800385912      -10.3670685107       18.8386901343  MEMB      6               0.0000000000
       580         6  OSM       NF              1.2098557329       -8.4473682457       16.5466641920  MEMB      6               0.0000000000
       581         6  OSM       HNF             0.2582416397       -8.5206989091       16.2584582802  MEMB      6               0.0000000000
       582         6  OSM       C2S             1.6845813777       -9.7689203880       16.8534514906  MEMB      6               0.0000000000
       583         6  OSM       H2S             2.7209524860       -9.8646261370       16.4647403094  MEMB      6               0.0000000000
       584         6  OSM       C3S             0.6690952652      -10.8569423968       16.3002432887  MEMB      6               0.0000000000
       585         6  OSM       H3S            -0.3376620318      -10.4259141319       16.4872605529  MEMB      6               0.0000000000
       586         6  OSM       O3              0.7782931009      -12.1790779111       16.8503892971  MEMB      6               0.0000000000
       587         6  OSM       HO3             1.5881639573      -12.1476075626       17.3648977859  MEMB      6               0.0000000000
       588         6  OSM       C4S             0.8890716768      -10.9466049241       14.8212110538  MEMB      6               0.0000000000
       589         6  OSM       H4S             0.2322121390      -10.2777538118       14.2457342368  MEMB      6               0.0000000000
       590         6  OSM       C5S             1.8209162412      -11.6543538347       14.1446842147  MEMB      6               0.0000000000
       591         6  OSM       H5S             2.4400354993      -12.3349123764       14.7476204819  MEMB      6               0.0000000000
       592         6  OSM       C6S             2.0956706350      -11.6775252358       12.6688831142  MEMB      6               0.0000000000
       593         6  OSM       H6S             1.5105693039      -12.5241958859       12.2504029139  MEMB      6               0.0000000000
       594         6  OSM       H6T             3.1639249540      -11.9273792666       12.4935929732  MEMB      6               0.0000000000
       595         6  OSM       C7S             2.0374944155      -10.3558844258       11.8215934994  MEMB      6               0.0000000000
       596         6  OSM       H7S             2.5626126410       -9.5029404677       12.3022793147  MEMB      6               0.0000000000
       597         6  OSM       H7T             0.9887412746       -9.9917799154       11.7783987621  MEMB      6               0.0000000000
       598         6  OSM       C8S             2.5073576229      -10.4816717550       10.3653356543  MEMB      6               0.0000000000
       599         6  OSM       H8S             3.6059472661      -10.6353980267       10.4268983844  MEMB      6               0.0000000000
       600         6  OSM       H8T             2.2472337420       -9.4894913964        9.9384460550  MEMB      6               0.0000000000
       601         6  OSM       C9S             1.9315199866      -11.6419024238        9.5838321541  MEMB      6               0.0000000000
       602         6  OSM       H9S             0.8214780255      -11.6065919330        9.5541480132  MEMB      6               0.0000000000
       603         6  OSM       H9T             2.1710135110      -12.5220145849       10.2181559087  MEMB      6               0.0000000000
       604         6  OSM       C10S            2.4400269836      -11.9397913371        8.1801210752  MEMB      6               0.0000000000
       605         6  OSM       H10S            1.8839871150      -12.8713119424        7.9405172932  MEMB      6               0.0000000000
       606         6  OSM       H10T            3.5166894146      -12.2106422415        8.1381820275  MEMB      6               0.0000000000
       607         6  OSM       C11S            2.0711323162      -10.7782611298        7.2152625672  MEMB      6               0.0000000000
       608         6  OSM       H11S            1.9910664815      -11.0705230381        6.1463883824  MEMB      6               0.0000000000
       609         6  OSM       H11T            2.8059654005       -9.9451588900        7.2320586826  MEMB      6               0.0000000000
       610         6  OSM       C12S            0.5742008859      -10.2296200027        7.4252023061  MEMB      6               0.0000000000
       611         6  OSM       H12S            0.4471809369       -9.8020549827        8.4427360380  MEMB      6               0.0000000000
       612         6  OSM       H12T            0.0044083151      -11.1820454274        7.4756329527  MEMB      6               0.0000000000
       613         6  OSM       C13S            0.0344673153       -9.2820112043        6.3336686786  MEMB      6               0.0000000000
       614         6  OSM       H13S            0.7220539524       -8.4147131032        6.2370260840  MEMB      6               0.0000000000
       615         6  OSM       H13T           -0.9902984670       -8.9295293020        6.5784803703  MEMB      6               0.0000000000
       616         6  OSM       C14S           -0.0423770270       -9.9589895773        4.9758650871  MEMB      6               0.0000000000
       617         6  OSM       H14S           -0.6466592838      -10.8827023120        4.8496961425  MEMB      6               0.0000000000
       618         6  OSM       H14T            0.9756303840      -10.2335063683        4.6256898529  MEMB      6               0.0000000000
       619         6  OSM       C15S           -0.6807009518       -8.9282209163        3.9594906698  MEMB      6               0.0000000000
       620         6  OSM       H15S           -0.0665021969       -8.0377104429        4.2126139355  MEMB      6               0.0000000000
       621         6  OSM       H15T           -1.7654706277       -8.8210102023        4.1742030834  MEMB      6               0.0000000000
       622         6  OSM       C16S           -0.6069109200       -9.2720096667        2.5171240050  MEMB      6               0.0000000000
       623         6  OSM       H16S           -1.4429153973       -9.9756415004        2.3163258561  MEMB      6               0.0000000000
       624         6  OSM       H16T            0.2654372330       -9.9169262399        2.2775158498  MEMB      6               0.0000000000
       625         6  OSM       C17S           -0.7928229719       -8.0755104854        1.5673057742  MEMB      6               0.0000000000
       626         6  OSM       H17S           -1.7282657210       -7.5194238555        1.7909929731  MEMB      6               0.0000000000
       627         6  OSM       H17T           -0.9406907640       -8.5772337249        0.5871377793  MEMB      6               0.0000000000
       628         6  OSM       C18S            0.3889072419       -7.1232776613        1.4838600335  MEMB      6               0.0000000000
       629         6  OSM       H18S            0.6284560467       -6.6706884998        2.4698113270  MEMB      6               0.0000000000
       630         6  OSM       H18T            0.0019312714       -6.3074068829        0.8366157044  MEMB      6               0.0000000000
       631         6  OSM       H18U            1.2947186183       -7.5542304463        1.0062550762  MEMB      6               0.0000000000
       632         6  OSM       C1F             1.7746445352       -7.1818823068       16.7198958798  MEMB      6               0.0000000000
       633         6  OSM       OF              2.6586382544       -6.9767696379       17.5540197617  MEMB      6               0.0000000000
       634         6  OSM       C2F             1.1928559257       -6.0656826685       15.8858853672  MEMB      6               0.0000000000
       635         6  OSM       H2F             0.8169547362       -5.2152537448       16.4939888218  MEMB      6               0.0000000000
       636         6  OSM       H2G             0.3046071288       -6.5195431753       15.3966556563  MEMB      6               0.0000000000
       637         6  OSM       C3F             2.0786737923       -5.5847815102       14.7297294346  MEMB      6               0.0000000000
       638         6  OSM       H3F             3.0241687775       -5.0818041215       15.0253212189  MEMB      6               0.0000000000
       639         6  OSM       H3G             1.5151466845       -4.7836117619       14.2054340363  MEMB      6               0.0000000000
       640         6  OSM       C4F             2.4493927670       -6.6514208995       13.7071984532  MEMB      6               0.0000000000
       641         6  OSM       H4F             1.6416656008       -6.5188362599       12.9559867803  MEMB      6               0.0000000000
       642         6  OSM       H4G             2.5595918159       -7.6389635444       14.2041255528  MEMB      6               0.0000000000
       643         6  OSM       C5F             3.7007417799       -6.3598699908       12.9063617673  MEMB      6               0.0000000000
       644         6  OSM       H5F             4.0926006403       -7.2173770689       12.3186122417  MEMB      6               0.0000000000
       645         6  OSM       H5G             4.5113956078       -5.9424020626       13.5410917828  MEMB      6               0.0000000000
       646         6  OSM       C6F             3.5404158225       -5.3596082206       11.7586036062  MEMB      6               0.0000000000
       647         6  OSM       H6F             4.5624342033       -5.0038885260       11.5070829478  MEMB      6               0.0000000000
       648         6  OSM       H6G             2.9959738788       -4.4149798431       11.9721008456  MEMB      6               0.0000000000
       649         6  OSM       C7F             2.8114614276       -5.8154459225       10.4778172839  MEMB      6               0.0000000000
       650         6  OSM       H7F             2.5030198932       -4.9806902338        9.8127101395  MEMB      6               0.0000000000
       651         6  OSM       H7G             1.9157788657       -6.3536128638       10.8552426502  MEMB      6               0.0000000000
       652         6  OSM       C8F             3.4673289561       -6.8641661622        9.5929275111  MEMB      6               0.0000000000
       653         6  OSM       H8F             2.7077005774       -7.2871460363        8.9012813936  MEMB      6               0.0000000000
       654         6  OSM       H8G             3.7470672840       -7.7056776075       10.2621997979  MEMB      6               0.0000000000
       655         6  OSM       C9F             4.7329553912       -6.4225352500        8.9055333144  MEMB      6               0.0000000000
       656         6  OSM       H9F             5.5378416639       -5.9717698439        9.5046728473  MEMB      6               0.0000000000
       657         6  OSM       C10F            4.8927333262       -6.2255726023        7.6564712371  MEMB      6               0.0000000000
       658         6  OSM       H10F            5.8986268285       -5.9287005274        7.3247413088  MEMB      6               0.0000000000
       659         6  OSM       C11F            3.9221376584       -6.4314927877        6.4553639017  MEMB      6               0.0000000000
       660         6  OSM       H11F            3.4796167451       -5.4486285370        6.1861534900  MEMB      6               0.0000000000
       661         6  OSM       H11G            3.0307182816       -6.9709564600        6.8409433047  MEMB      6               0.0000000000
       662         6  OSM       C12F            4.3946937279       -7.2546787456        5.3248379572  MEMB      6               0.0000000000
       663         6  OSM       H12F            4.6422656394       -8.2309338713        5.7938310058  MEMB      6               0.0000000000
       664         6  OSM       H12G            5.3297518063       -6.7944188369        4.9399373552  MEMB      6               0.0000000000
       665         6  OSM       C13F            3.3891123828       -7.6631450480        4.2478858237  MEMB      6               0.0000000000
       666         6  OSM       H13F            2.9945526063       -6.7343410780        3.7831627272  MEMB      6               0.0000000000
       667         6  OSM       H13G            2.4929929743       -8.2253877034        4.5872586954  MEMB      6               0.0000000000
       668         6  OSM       C14F            4.2182642867       -8.2775228121        3.1395219498  MEMB      6               0.0000000000
       669         6  OSM       H14F            4.4909932180       -9.2478853346        3.6067859059  MEMB      6               0.0000000000
       670         6  OSM       H14G            5.0574819298       -7.5525793065        3.0724992004  MEMB      6               0.0000000000
       671         6  OSM       C15F            3.6485730322       -8.2886739175        1.7681186023  MEMB      6               0.0000000000
       672         6  OSM       H15F            3.3840081766       -7.2247921604        1.5878915937  MEMB      6               0.0000000000
       673         6  OSM       H15G            2.7738828988       -8.9418276734        1.5616543070  MEMB      6               0.0000000000
       674         6  OSM       C16F            4.7664997167       -8.6182583804        0.7982294052  MEMB      6               0.0000000000
       675         6  OSM       H16F            5.1963036370       -9.5839677420        1.1402743182  MEMB      6               0.0000000000
       676         6  OSM       H16G            5.4813118703       -7.7684590767        0.7635122707  MEMB      6               0.0000000000
       677         6  OSM       C17F            4.1746342486       -8.9030524158       -0.6292775189  MEMB      6               0.0000000000
       678         6  OSM       H17F            4.9814262177       -8.7777713640       -1.3827438998  MEMB      6               0.0000000000
       679         6  OSM       H17G            3.3888809646       -8.1230760101       -0.7217408608  MEMB      6               0.0000000000
       680         6  OSM       C18F            3.4836754606      -10.1908051042       -0.7592528074  MEMB      6               0.0000000000
       681         6  OSM       H18F            4.1533340516      -11.0217141879       -0.4502736803  MEMB      6               0.0000000000
       682         6  OSM       H18G            3.3558409996      -10.4103391296       -1.8408196163  MEMB      6               0.0000000000
       683         6  OSM       H18H            2.5715307642      -10.2566434613       -0.1283981404  MEMB      6               0.0000000000
       684         7  CHL1      C3            -11.0853156770       -1.6361074978       17.3060100000  MEMB      7               0.0000000000
       685         7  CHL1      H3            -11.3382669130       -2.6948031430       17.0835100000  MEMB      7               0.0000000000
       686         7  CHL1      O3            -10.8814945230       -1.5678316222       18.6939900000  MEMB      7               0.0000000000
       687         7  CHL1      H3'           -10.6622541636       -2.4305649718       19.0534600000  MEMB      7               0.0000000000
       688         7  CHL1      C4             -9.7334907795       -1.3588305438       16.6566100000  MEMB      7               0.0000000000
       689         7  CHL1      H4A            -9.5529139886       -0.2770131839       16.8338000000  MEMB      7               0.0000000000
       690         7  CHL1      H4B            -8.9039711519       -1.9354434018       17.1189400000  MEMB      7               0.0000000000
       691         7  CHL1      C5             -9.8168753494       -1.5479372090       15.0976600000  MEMB      7               0.0000000000
       692         7  CHL1      C6             -8.9134843178       -2.2683077664       14.4775500000  MEMB      7               0.0000000000
       693         7  CHL1      H6             -8.2007032990       -2.8580609058       15.0726400000  MEMB      7               0.0000000000
       694         7  CHL1      C7             -8.9439353777       -2.4385594714       12.9429600000  MEMB      7               0.0000000000
       695         7  CHL1      H7A            -7.9805719123       -2.2584133149       12.4197100000  MEMB      7               0.0000000000
       696         7  CHL1      H7B            -9.3600110498       -3.4262963372       12.6503900000  MEMB      7               0.0000000000
       697         7  CHL1      C8             -9.8269900798       -1.3328174981       12.1926200000  MEMB      7               0.0000000000
       698         7  CHL1      H8             -9.2317967043       -0.3962256109       12.1392800000  MEMB      7               0.0000000000
       699         7  CHL1      C14            -9.9938523980       -1.6254745158       10.7442200000  MEMB      7               0.0000000000
       700         7  CHL1      H14           -10.6381634684       -2.5218344437       10.8696600000  MEMB      7               0.0000000000
       701         7  CHL1      C15            -8.7602955123       -1.9438490891        9.8984300000  MEMB      7               0.0000000000
       702         7  CHL1      H15A           -7.9708888132       -1.1990258968       10.1359000000  MEMB      7               0.0000000000
       703         7  CHL1      H15B           -8.3211320209       -2.9275912384       10.1699300000  MEMB      7               0.0000000000
       704         7  CHL1      C16            -9.2351308183       -1.7255020567        8.4614700000  MEMB      7               0.0000000000
       705         7  CHL1      H16A           -8.6719970153       -0.9395436410        7.9142400000  MEMB      7               0.0000000000
       706         7  CHL1      H16B           -9.2541328849       -2.6371698385        7.8267900000  MEMB      7               0.0000000000
       707         7  CHL1      C17           -10.7156248699       -1.3141388421        8.6070100000  MEMB      7               0.0000000000
       708         7  CHL1      H17           -11.4264113418       -2.1608775498        8.7171700000  MEMB      7               0.0000000000
       709         7  CHL1      C13           -10.8407024727       -0.6070865645        9.9741900000  MEMB      7               0.0000000000
       710         7  CHL1      C18           -10.2398159532        0.8313708484        9.9338700000  MEMB      7               0.0000000000
       711         7  CHL1      H18A          -10.1286767291        1.2335172706       10.9635600000  MEMB      7               0.0000000000
       712         7  CHL1      H18B           -9.1950888098        0.5453230286        9.6868400000  MEMB      7               0.0000000000
       713         7  CHL1      H18C          -10.8377870602        1.5095800852        9.2882900000  MEMB      7               0.0000000000
       714         7  CHL1      C12           -12.2132073372       -0.5912646316       10.6350200000  MEMB      7               0.0000000000
       715         7  CHL1      H12A          -12.8867389981        0.1533168554       10.1593300000  MEMB      7               0.0000000000
       716         7  CHL1      H12B          -12.7442552032       -1.5283593340       10.3627000000  MEMB      7               0.0000000000
       717         7  CHL1      C11           -12.0938640010       -0.2327792853       12.1566100000  MEMB      7               0.0000000000
       718         7  CHL1      H11A          -11.8858353752        0.8483633462       12.3055500000  MEMB      7               0.0000000000
       719         7  CHL1      H11B          -13.0646798429       -0.3787571893       12.6767300000  MEMB      7               0.0000000000
       720         7  CHL1      C9            -11.0938555237       -1.0805030432       12.9586100000  MEMB      7               0.0000000000
       721         7  CHL1      H9            -11.6697547266       -2.0237022675       13.0727700000  MEMB      7               0.0000000000
       722         7  CHL1      C10           -10.9060547951       -0.7206511635       14.3904400000  MEMB      7               0.0000000000
       723         7  CHL1      C19           -10.6237640463        0.8086881281       14.5510100000  MEMB      7               0.0000000000
       724         7  CHL1      H19A           -9.8210730965        1.0686290861       13.8282100000  MEMB      7               0.0000000000
       725         7  CHL1      H19B          -11.5497058076        1.3152655568       14.2041200000  MEMB      7               0.0000000000
       726         7  CHL1      H19C          -10.4641044048        1.0587287505       15.6216700000  MEMB      7               0.0000000000
       727         7  CHL1      C1            -12.2038320237       -1.0189774973       15.2367400000  MEMB      7               0.0000000000
       728         7  CHL1      H1A           -12.9808560447       -0.4327725913       14.7010900000  MEMB      7               0.0000000000
       729         7  CHL1      H1B           -12.6469707641       -2.0321962946       15.1302600000  MEMB      7               0.0000000000
       730         7  CHL1      C2            -12.1763294490       -0.7568878539       16.7500400000  MEMB      7               0.0000000000
       731         7  CHL1      H2A           -13.1549340581       -0.8613937431       17.2655300000  MEMB      7               0.0000000000
       732         7  CHL1      H2B           -11.8126530236        0.2771078127       16.9314800000  MEMB      7               0.0000000000
       733         7  CHL1      C20           -11.1976224780       -0.5581404599        7.3388900000  MEMB      7               0.0000000000
       734         7  CHL1      H20           -10.4845711325        0.2897451338        7.2554500000  MEMB      7               0.0000000000
       735         7  CHL1      C21           -12.7250222228       -0.1562789159        7.4403700000  MEMB      7               0.0000000000
       736         7  CHL1      H21A          -13.2809437157       -0.3044386093        6.4899300000  MEMB      7               0.0000000000
       737         7  CHL1      H21B          -12.8564153753        0.8875241983        7.7974900000  MEMB      7               0.0000000000
       738         7  CHL1      H21C          -13.2451587967       -0.8094617902        8.1732700000  MEMB      7               0.0000000000
       739         7  CHL1      C22           -11.0473124604       -1.3695640786        6.0522900000  MEMB      7               0.0000000000
       740         7  CHL1      H22A          -10.5222660458       -2.3383523150        6.1940300000  MEMB      7               0.0000000000
       741         7  CHL1      H22B          -12.0538198978       -1.6701665450        5.6905000000  MEMB      7               0.0000000000
       742         7  CHL1      C23           -10.3801968793       -0.6058704610        4.8232000000  MEMB      7               0.0000000000
       743         7  CHL1      H23A          -10.5804185940        0.4826584535        4.9197700000  MEMB      7               0.0000000000
       744         7  CHL1      H23B           -9.3180190698       -0.7033968013        5.1340200000  MEMB      7               0.0000000000
       745         7  CHL1      C24           -10.8442251211       -1.0811861210        3.5081500000  MEMB      7               0.0000000000
       746         7  CHL1      H24A          -10.4072826212       -2.0859241103        3.3240600000  MEMB      7               0.0000000000
       747         7  CHL1      H24B          -11.9489162093       -1.1986443526        3.4944400000  MEMB      7               0.0000000000
       748         7  CHL1      C25           -10.5873105883       -0.0027033012        2.3157800000  MEMB      7               0.0000000000
       749         7  CHL1      H25            -9.8149351989        0.7369465470        2.6168900000  MEMB      7               0.0000000000
       750         7  CHL1      C26           -10.0010182943       -0.7585176043        1.0954100000  MEMB      7               0.0000000000
       751         7  CHL1      H26A           -8.9463528266       -1.0052975707        1.3426000000  MEMB      7               0.0000000000
       752         7  CHL1      H26B          -10.6227584975       -1.6643256039        0.9302400000  MEMB      7               0.0000000000
       753         7  CHL1      H26C          -10.1195487644       -0.1487949895        0.1742700000  MEMB      7               0.0000000000
       754         7  CHL1      C27           -11.8541058655        0.5994813929        1.8291000000  MEMB      7               0.0000000000
       755         7  CHL1      H27A          -12.4842991777        1.1017688062        2.5938800000  MEMB      7               0.0000000000
       756         7  CHL1      H27B          -11.6455579010        1.3378508680        1.0255800000  MEMB      7               0.0000000000
       757         7  CHL1      H27C          -12.5310737968       -0.1733241780        1.4062300000  MEMB      7               0.0000000000
       758         8  CHL1      C3             -4.9484149021        9.9818186202       17.2936350000  MEMB      8               0.0000000000
       759         8  CHL1      H3             -4.9084893407       11.0435138364       16.9687850000  MEMB      8               0.0000000000
       760         8  CHL1      O3             -5.0116899179        9.9962510998       18.7063650000  MEMB      8               0.0000000000
       761         8  CHL1      H3'            -4.3460342826       10.6081473325       19.0289950000  MEMB      8               0.0000000000
       762         8  CHL1      C4             -6.2797589024        9.4957111357       16.7013250000  MEMB      8               0.0000000000
       763         8  CHL1      H4A            -6.5376338382        8.5042755288       17.1313150000  MEMB      8               0.0000000000
       764         8  CHL1      H4B            -7.1869737440        9.9901389892       17.1097750000  MEMB      8               0.0000000000
       765         8  CHL1      C5             -6.2844935546        9.5530609209       15.2245850000  MEMB      8               0.0000000000
       766         8  CHL1      C6             -7.1413085542       10.2846333473       14.4841850000  MEMB      8               0.0000000000
       767         8  CHL1      H6             -7.9354276963       10.9021815260       14.9291650000  MEMB      8               0.0000000000
       768         8  CHL1      C7             -7.1775040631       10.3961841094       12.9477950000  MEMB      8               0.0000000000
       769         8  CHL1      H7A            -8.2138879045       10.4728073385       12.5549050000  MEMB      8               0.0000000000
       770         8  CHL1      H7B            -6.6591652968       11.3246017516       12.6257950000  MEMB      8               0.0000000000
       771         8  CHL1      C8             -6.4078121979        9.2758149849       12.3701650000  MEMB      8               0.0000000000
       772         8  CHL1      H8             -6.9735941969        8.3258712429       12.4788050000  MEMB      8               0.0000000000
       773         8  CHL1      C14            -6.2086533252        9.5705962597       10.8495650000  MEMB      8               0.0000000000
       774         8  CHL1      H14            -5.5702443924       10.4794083512       10.8206350000  MEMB      8               0.0000000000
       775         8  CHL1      C15            -7.4828302661        9.9374800868       10.0168650000  MEMB      8               0.0000000000
       776         8  CHL1      H15A           -8.3604475006        9.2859789167       10.2159950000  MEMB      8               0.0000000000
       777         8  CHL1      H15B           -7.7431660050       11.0163416090       10.0680650000  MEMB      8               0.0000000000
       778         8  CHL1      C16            -6.9287609527        9.6488977214        8.5760050000  MEMB      8               0.0000000000
       779         8  CHL1      H16A           -7.5971904274        8.8362481796        8.2194750000  MEMB      8               0.0000000000
       780         8  CHL1      H16B           -6.9482559353       10.4992867825        7.8613150000  MEMB      8               0.0000000000
       781         8  CHL1      C17            -5.4639150338        9.0691014161        8.6602050000  MEMB      8               0.0000000000
       782         8  CHL1      H17            -4.8351908462        9.9806485047        8.5702150000  MEMB      8               0.0000000000
       783         8  CHL1      C13            -5.3861871783        8.5274884126       10.0655650000  MEMB      8               0.0000000000
       784         8  CHL1      C18            -6.0541549655        7.1175102510       10.2790550000  MEMB      8               0.0000000000
       785         8  CHL1      H18A           -7.1065626268        7.0280142527        9.9344650000  MEMB      8               0.0000000000
       786         8  CHL1      H18B           -5.4552163613        6.3467921183        9.7484050000  MEMB      8               0.0000000000
       787         8  CHL1      H18C           -6.1373774526        6.8764766591       11.3604050000  MEMB      8               0.0000000000
       788         8  CHL1      C12            -3.9578621871        8.5877831652       10.6902350000  MEMB      8               0.0000000000
       789         8  CHL1      H12A           -3.3036618922        7.7709731369       10.3171950000  MEMB      8               0.0000000000
       790         8  CHL1      H12B           -3.4767900444        9.5749705008       10.5219050000  MEMB      8               0.0000000000
       791         8  CHL1      C11            -4.0643358416        8.2517098278       12.2741650000  MEMB      8               0.0000000000
       792         8  CHL1      H11A           -4.2400071769        7.1633151179       12.4115450000  MEMB      8               0.0000000000
       793         8  CHL1      H11B           -3.0402939910        8.3804435451       12.6853750000  MEMB      8               0.0000000000
       794         8  CHL1      C9             -5.0399378308        9.1478527243       13.0644350000  MEMB      8               0.0000000000
       795         8  CHL1      H9             -4.6177912214       10.1734199610       12.9986950000  MEMB      8               0.0000000000
       796         8  CHL1      C10            -5.1485298071        8.7312305985       14.5952650000  MEMB      8               0.0000000000
       797         8  CHL1      C19            -5.3372754650        7.2048484914       14.6886650000  MEMB      8               0.0000000000
       798         8  CHL1      H19A           -5.6569726723        6.8609432298       15.6955650000  MEMB      8               0.0000000000
       799         8  CHL1      H19B           -6.1780965940        6.8276261471       14.0681350000  MEMB      8               0.0000000000
       800         8  CHL1      H19C           -4.4418016427        6.6177923216       14.3923550000  MEMB      8               0.0000000000
       801         8  CHL1      C1             -3.7814171476        9.1579113489       15.2886250000  MEMB      8               0.0000000000
       802         8  CHL1      H1A            -3.0033413554        8.5398733500       14.7916750000  MEMB      8               0.0000000000
       803         8  CHL1      H1B            -3.4822178570       10.2001096960       15.0464850000  MEMB      8               0.0000000000
       804         8  CHL1      C2             -3.7404617560        9.1517085033       16.7776850000  MEMB      8               0.0000000000
       805         8  CHL1      H2A            -2.8690045742        9.6617291453       17.2411250000  MEMB      8               0.0000000000
       806         8  CHL1      H2B            -3.7327111621        8.1166831937       17.1813850000  MEMB      8               0.0000000000
       807         8  CHL1      C20            -5.0538824088        8.2149498565        7.4501450000  MEMB      8               0.0000000000
       808         8  CHL1      H20            -5.6955182756        7.3107293112        7.5209150000  MEMB      8               0.0000000000
       809         8  CHL1      C21            -3.5622404775        7.8010807636        7.4701450000  MEMB      8               0.0000000000
       810         8  CHL1      H21A           -2.8248145944        8.6087629285        7.6655550000  MEMB      8               0.0000000000
       811         8  CHL1      H21B           -3.2410386364        7.4265481635        6.4747050000  MEMB      8               0.0000000000
       812         8  CHL1      H21C           -3.3633374037        7.0063352189        8.2205650000  MEMB      8               0.0000000000
       813         8  CHL1      C22            -5.4767750160        8.7742852582        6.0642450000  MEMB      8               0.0000000000
       814         8  CHL1      H22A           -5.1570766209        7.9038994937        5.4522450000  MEMB      8               0.0000000000
       815         8  CHL1      H22B           -6.5778960081        8.9114608309        6.0090750000  MEMB      8               0.0000000000
       816         8  CHL1      C23            -4.8514509164       10.1131209872        5.6839750000  MEMB      8               0.0000000000
       817         8  CHL1      H23A           -5.3727565108       10.9090976924        6.2575450000  MEMB      8               0.0000000000
       818         8  CHL1      H23B           -3.7665548510       10.1615667481        5.9184350000  MEMB      8               0.0000000000
       819         8  CHL1      C24            -5.1692135567       10.4015146252        4.1686450000  MEMB      8               0.0000000000
       820         8  CHL1      H24A           -6.2574128321       10.5229717299        3.9805150000  MEMB      8               0.0000000000
       821         8  CHL1      H24B           -4.6826445331       11.3595102633        3.8861350000  MEMB      8               0.0000000000
       822         8  CHL1      C25            -4.7766684861        9.3106132359        3.1435950000  MEMB      8               0.0000000000
       823         8  CHL1      H25            -5.2874648519        8.3440526758        3.3414750000  MEMB      8               0.0000000000
       824         8  CHL1      C26            -5.0749978481        9.7903597790        1.6751550000  MEMB      8               0.0000000000
       825         8  CHL1      H26A           -4.8303383425        9.0413403095        0.8919350000  MEMB      8               0.0000000000
       826         8  CHL1      H26B           -6.1319394500       10.1293883734        1.6277450000  MEMB      8               0.0000000000
       827         8  CHL1      H26C           -4.4489627375       10.6724005384        1.4213450000  MEMB      8               0.0000000000
       828         8  CHL1      C27            -3.2570222635        9.0707025796        3.2629950000  MEMB      8               0.0000000000
       829         8  CHL1      H27A           -2.7637279554        9.9588117709        2.8132650000  MEMB      8               0.0000000000
       830         8  CHL1      H27B           -2.7803805261        8.8778104235        4.2478450000  MEMB      8               0.0000000000
       831         8  CHL1      H27C           -3.0430724967        8.2269591367        2.5725950000  MEMB      8               0.0000000000
       832         9  OSM       N              10.9413325286       -7.7669879271       21.2964938972  MEMB      9               0.0000000000
       833         9  OSM       C15            11.7893231672       -6.8295436794       20.3700031373  MEMB      9               0.0000000000
       834         9  OSM       H15A           11.3367059666       -6.5348660727       19.4347476476  MEMB      9               0.0000000000
       835         9  OSM       H15B           12.6346564346       -7.3812565089       19.9860440996  MEMB      9               0.0000000000
       836         9  OSM       H15C           12.2707483833       -6.0157519702       20.8918968364  MEMB      9               0.0000000000
       837         9  OSM       C14            10.1159148274       -8.6086865673       20.4480245478  MEMB      9               0.0000000000
       838         9  OSM       H14A            9.5745200442       -8.0370263603       19.7087707077  MEMB      9               0.0000000000
       839         9  OSM       H14B            9.3859802671       -9.1202302175       21.0578759334  MEMB      9               0.0000000000
       840         9  OSM       H14C           10.7999526323       -9.3216096500       20.0118677609  MEMB      9               0.0000000000
       841         9  OSM       C13            11.8862364427       -8.6863014151       21.9972090805  MEMB      9               0.0000000000
       842         9  OSM       H13A           12.5951842992       -8.1146392469       22.5777219644  MEMB      9               0.0000000000
       843         9  OSM       H13B           12.4071529492       -9.1875750480       21.1948558064  MEMB      9               0.0000000000
       844         9  OSM       H13C           11.4428786689       -9.4124696415       22.6624260786  MEMB      9               0.0000000000
       845         9  OSM       C12            10.1006674310       -7.0227220856       22.3363470298  MEMB      9               0.0000000000
       846         9  OSM       H12A           10.8491643270       -6.6495649161       23.0196523950  MEMB      9               0.0000000000
       847         9  OSM       H12B            9.6181080918       -7.6957344030       23.0295938091  MEMB      9               0.0000000000
       848         9  OSM       C11             9.0515462859       -5.9910913054       21.8667482509  MEMB      9               0.0000000000
       849         9  OSM       H11A            8.8756153090       -5.3313330475       22.7431547955  MEMB      9               0.0000000000
       850         9  OSM       H11B            8.1812347729       -6.6122371177       21.5649922473  MEMB      9               0.0000000000
       851         9  OSM       P               8.6237761911       -3.7955476280       20.6128879592  MEMB      9               0.0000000000
       852         9  OSM       O13             7.2740550805       -3.9944909022       21.2187006568  MEMB      9               0.0000000000
       853         9  OSM       O14             9.3187637339       -2.5847685542       21.0038935062  MEMB      9               0.0000000000
       854         9  OSM       O11             8.3833840124       -3.7165899022       19.0549683872  MEMB      9               0.0000000000
       855         9  OSM       O12             9.4913340482       -5.1103669290       20.7947235493  MEMB      9               0.0000000000
       856         9  OSM       C1S             9.4592268532       -3.9730137380       18.1727158670  MEMB      9               0.0000000000
       857         9  OSM       H1S             9.6212821775       -5.0672674986       18.0694305410  MEMB      9               0.0000000000
       858         9  OSM       H1T            10.4308740227       -3.6418177396       18.5976065262  MEMB      9               0.0000000000
       859         9  OSM       NF             10.0907219144       -4.2614238991       15.7300126915  MEMB      9               0.0000000000
       860         9  OSM       HNF            10.6028669276       -3.6424238430       15.1396270167  MEMB      9               0.0000000000
       861         9  OSM       C2S             9.1360422813       -3.6630232769       16.6910499408  MEMB      9               0.0000000000
       862         9  OSM       H2S             8.1122239879       -4.0324984299       16.4683276719  MEMB      9               0.0000000000
       863         9  OSM       C3S             9.1594495176       -2.1594616708       16.4914691386  MEMB      9               0.0000000000
       864         9  OSM       H3S            10.1506656564       -1.7589142277       16.7937491109  MEMB      9               0.0000000000
       865         9  OSM       O3              8.0852228359       -1.5868678607       17.2520737118  MEMB      9               0.0000000000
       866         9  OSM       HO3             7.6225777407       -2.3615613379       17.5798076220  MEMB      9               0.0000000000
       867         9  OSM       C4S             8.8906880869       -1.8253333682       15.0644743566  MEMB      9               0.0000000000
       868         9  OSM       H4S             7.9776695040       -2.2663945001       14.6380211770  MEMB      9               0.0000000000
       869         9  OSM       C5S             9.4926192135       -0.8826951389       14.3357212806  MEMB      9               0.0000000000
       870         9  OSM       H5S            10.4491103657       -0.4035341814       14.5917084006  MEMB      9               0.0000000000
       871         9  OSM       C6S             9.0616637071       -0.6787473552       12.8742840498  MEMB      9               0.0000000000
       872         9  OSM       H6S             8.6809233930        0.3649467198       12.8820943397  MEMB      9               0.0000000000
       873         9  OSM       H6T             8.2358328026       -1.3559047716       12.5680458303  MEMB      9               0.0000000000
       874         9  OSM       C7S            10.1786421235       -0.7148601392       11.7934824851  MEMB      9               0.0000000000
       875         9  OSM       H7S            10.8715966265        0.1144529627       12.0511149369  MEMB      9               0.0000000000
       876         9  OSM       H7T             9.6272931353       -0.3676330053       10.8936107410  MEMB      9               0.0000000000
       877         9  OSM       C8S            10.9662570981       -2.1028881089       11.7018746557  MEMB      9               0.0000000000
       878         9  OSM       H8S            11.5406900396       -2.2101668228       12.6467766562  MEMB      9               0.0000000000
       879         9  OSM       H8T            11.7679021641       -1.9736229892       10.9436025870  MEMB      9               0.0000000000
       880         9  OSM       C9S            10.1334509917       -3.3058909783       11.2710551459  MEMB      9               0.0000000000
       881         9  OSM       H9S             9.4433582340       -3.5894632008       12.0942691635  MEMB      9               0.0000000000
       882         9  OSM       H9T            10.8275018887       -4.1638283603       11.1423790782  MEMB      9               0.0000000000
       883         9  OSM       C10S            9.3682017292       -3.2081990969        9.9232434455  MEMB      9               0.0000000000
       884         9  OSM       H10S            8.6212120801       -2.4063602565       10.1059514287  MEMB      9               0.0000000000
       885         9  OSM       H10T            8.7141975346       -4.0873187914        9.7395376447  MEMB      9               0.0000000000
       886         9  OSM       C11S           10.2311066681       -2.7658119824        8.7423040888  MEMB      9               0.0000000000
       887         9  OSM       H11S           10.8523662929       -3.6409564124        8.4551109450  MEMB      9               0.0000000000
       888         9  OSM       H11T           10.9532399055       -2.0160505229        9.1305077223  MEMB      9               0.0000000000
       889         9  OSM       C12S            9.4484321682       -2.2539330298        7.5573584803  MEMB      9               0.0000000000
       890         9  OSM       H12S            8.9535776423       -1.2657917351        7.6714495992  MEMB      9               0.0000000000
       891         9  OSM       H12T            8.7205534586       -3.0697173124        7.3598504228  MEMB      9               0.0000000000
       892         9  OSM       C13S           10.2892167763       -2.1662884563        6.2620152356  MEMB      9               0.0000000000
       893         9  OSM       H13S           10.9304759315       -3.0602864598        6.1074993052  MEMB      9               0.0000000000
       894         9  OSM       H13T           10.8360958401       -1.2030448757        6.1759566082  MEMB      9               0.0000000000
       895         9  OSM       C14S            9.2931935496       -2.2144800167        5.0380653921  MEMB      9               0.0000000000
       896         9  OSM       H14S            8.6461009864       -1.3233681519        5.1847333809  MEMB      9               0.0000000000
       897         9  OSM       H14T            8.6415726314       -3.1135581027        5.0750702577  MEMB      9               0.0000000000
       898         9  OSM       C15S            9.9684642537       -2.2142455138        3.6749957457  MEMB      9               0.0000000000
       899         9  OSM       H15S           10.6535586900       -1.3398733889        3.6540118712  MEMB      9               0.0000000000
       900         9  OSM       H15T            9.1660974453       -2.1650640274        2.9081127811  MEMB      9               0.0000000000
       901         9  OSM       C16S           10.7130313714       -3.4776169134        3.3321507084  MEMB      9               0.0000000000
       902         9  OSM       H16S            9.8571781424       -4.1838255561        3.2764210570  MEMB      9               0.0000000000
       903         9  OSM       H16T           11.3016169015       -3.8092950975        4.2141256530  MEMB      9               0.0000000000
       904         9  OSM       C17S           11.4708327260       -3.3059431223        2.0295361958  MEMB      9               0.0000000000
       905         9  OSM       H17S           12.1530289953       -2.4529848308        2.2329854641  MEMB      9               0.0000000000
       906         9  OSM       H17T           10.7461652447       -3.0880274000        1.2160924000  MEMB      9               0.0000000000
       907         9  OSM       C18S           12.2746141397       -4.5999225688        1.5886272174  MEMB      9               0.0000000000
       908         9  OSM       H18S           12.9876428465       -4.8541771775        2.4018085810  MEMB      9               0.0000000000
       909         9  OSM       H18T           12.7597394017       -4.3301239922        0.6262425249  MEMB      9               0.0000000000
       910         9  OSM       H18U           11.5957483457       -5.4723687082        1.4777218027  MEMB      9               0.0000000000
       911         9  OSM       C1F            10.1288241626       -5.6311039841       15.5200198318  MEMB      9               0.0000000000
       912         9  OSM       OF              9.3165563131       -6.3977661761       16.0351071964  MEMB      9               0.0000000000
       913         9  OSM       C2F            11.2456607458       -6.0063888715       14.5703682811  MEMB      9               0.0000000000
       914         9  OSM       H2F            11.1427702901       -5.5466215282       13.5642132119  MEMB      9               0.0000000000
       915         9  OSM       H2G            11.0814286826       -7.0849400650       14.3604249657  MEMB      9               0.0000000000
       916         9  OSM       C3F            12.6489676659       -5.6990205176       15.0858802307  MEMB      9               0.0000000000
       917         9  OSM       H3F            12.7564454041       -6.1902621421       16.0765627426  MEMB      9               0.0000000000
       918         9  OSM       H3G            12.8118239740       -4.6004023590       15.0569489762  MEMB      9               0.0000000000
       919         9  OSM       C4F            13.6572888412       -6.2664788663       14.1651858830  MEMB      9               0.0000000000
       920         9  OSM       H4F            13.6449624163       -7.3762332610       14.2163146195  MEMB      9               0.0000000000
       921         9  OSM       H4G            14.6269888982       -6.0362227279       14.6560877803  MEMB      9               0.0000000000
       922         9  OSM       C5F            13.7840877290       -5.6907019292       12.7659590454  MEMB      9               0.0000000000
       923         9  OSM       H5F            13.4799736479       -4.6261120753       12.6738496913  MEMB      9               0.0000000000
       924         9  OSM       H5G            12.9805303446       -6.2273278841       12.2176440503  MEMB      9               0.0000000000
       925         9  OSM       C6F            15.1129195107       -6.0732153628       12.0831842752  MEMB      9               0.0000000000
       926         9  OSM       H6F            15.1863435223       -7.1384748773       12.3900270576  MEMB      9               0.0000000000
       927         9  OSM       H6G            15.8836172555       -5.6878897987       12.7845189424  MEMB      9               0.0000000000
       928         9  OSM       C7F            15.3189410944       -5.6741010022       10.5937433691  MEMB      9               0.0000000000
       929         9  OSM       H7F            16.2938323064       -6.1071432630       10.2832880557  MEMB      9               0.0000000000
       930         9  OSM       H7G            15.3576510279       -4.5644138937       10.5561046380  MEMB      9               0.0000000000
       931         9  OSM       C8F            14.2801659958       -6.0684234189        9.5917217408  MEMB      9               0.0000000000
       932         9  OSM       H8F            14.4488395687       -5.6087284931        8.5944493548  MEMB      9               0.0000000000
       933         9  OSM       H8G            13.4212977867       -5.4399809970        9.9106675334  MEMB      9               0.0000000000
       934         9  OSM       C9F            13.9033821204       -7.5600690747        9.5040655152  MEMB      9               0.0000000000
       935         9  OSM       H9F            14.7548981210       -8.1783318678        9.1836413854  MEMB      9               0.0000000000
       936         9  OSM       C10F           12.7233414484       -8.2683242627        9.6917581682  MEMB      9               0.0000000000
       937         9  OSM       H10F           12.7746414338       -9.3634493328        9.6019264540  MEMB      9               0.0000000000
       938         9  OSM       C11F           11.3354985205       -7.6460230627       10.0372995913  MEMB      9               0.0000000000
       939         9  OSM       H11F           11.5157414760       -6.9137132501       10.8531148501  MEMB      9               0.0000000000
       940         9  OSM       H11G           10.5802041863       -8.3472224495       10.4522333777  MEMB      9               0.0000000000
       941         9  OSM       C12F           10.8450877886       -6.6984914558        8.9039586840  MEMB      9               0.0000000000
       942         9  OSM       H12F           11.6622354095       -6.0073457424        8.6057838028  MEMB      9               0.0000000000
       943         9  OSM       H12G           10.0831897762       -5.9974835439        9.3069720867  MEMB      9               0.0000000000
       944         9  OSM       C13F           10.1844630620       -7.4038081848        7.6605077905  MEMB      9               0.0000000000
       945         9  OSM       H13F            9.2863264856       -7.9518187400        8.0173776632  MEMB      9               0.0000000000
       946         9  OSM       H13G           10.9669089765       -8.0736201709        7.2440336391  MEMB      9               0.0000000000
       947         9  OSM       C14F            9.8268566456       -6.4496038984        6.5324254863  MEMB      9               0.0000000000
       948         9  OSM       H14F           10.6789101382       -5.7937773087        6.2527509714  MEMB      9               0.0000000000
       949         9  OSM       H14G            8.9711000129       -5.8631591996        6.9300228704  MEMB      9               0.0000000000
       950         9  OSM       C15F            9.2421852531       -7.1680893501        5.3643860874  MEMB      9               0.0000000000
       951         9  OSM       H15F            8.7972232017       -6.4088682591        4.6862178191  MEMB      9               0.0000000000
       952         9  OSM       H15G            8.4353940676       -7.8890467098        5.6166348019  MEMB      9               0.0000000000
       953         9  OSM       C16F           10.1628123923       -8.0777041896        4.4618147900  MEMB      9               0.0000000000
       954         9  OSM       H16F           10.4109512958       -8.9545705096        5.0973096672  MEMB      9               0.0000000000
       955         9  OSM       H16G           11.0819419589       -7.4769179655        4.2927660387  MEMB      9               0.0000000000
       956         9  OSM       C17F            9.5094101352       -8.4281113244        3.1468838848  MEMB      9               0.0000000000
       957         9  OSM       H17F            9.0517148426       -7.5143854511        2.7110605927  MEMB      9               0.0000000000
       958         9  OSM       H17G            8.6565087546       -9.0874323977        3.4155385243  MEMB      9               0.0000000000
       959         9  OSM       C18F           10.3413831587       -9.0821244392        2.0982170016  MEMB      9               0.0000000000
       960         9  OSM       H18F            9.7497985598       -9.0855815329        1.1578256435  MEMB      9               0.0000000000
       961         9  OSM       H18G           10.7301062614      -10.0998846720        2.3158828135  MEMB      9               0.0000000000
       962         9  OSM       H18H           11.2846902195       -8.5089100363        1.9720486493  MEMB      9               0.0000000000
       963        10  SOPE      N              -8.4354937111        7.0241178806       22.1068148539  MEMB      10              0.0000000000
       964        10  SOPE      HN1            -8.8424999400        7.7722330986       21.5099317293  MEMB      10              0.0000000000
       965        10  SOPE      HN2            -7.8823607073        7.3250745394       22.9345038724  MEMB      10              0.0000000000
       966        10  SOPE      HN3            -7.7189456153        6.5662810470       21.5080290506  MEMB      10              0.0000000000
       967        10  SOPE      C12            -9.5612756884        6.0956732869       22.5897433924  MEMB      10              0.0000000000
       968        10  SOPE      H12A          -10.1604711644        6.6291890121       23.3582788465  MEMB      10              0.0000000000
       969        10  SOPE      H12B           -9.0470114933        5.3231650912       23.2005497622  MEMB      10              0.0000000000
       970        10  SOPE      C11           -10.4690668060        5.5706916924       21.4807067063  MEMB      10              0.0000000000
       971        10  SOPE      H11A          -11.1326607842        4.7862624420       21.9033587090  MEMB      10              0.0000000000
       972        10  SOPE      H11B           -9.7235532548        5.0236080546       20.8648902168  MEMB      10              0.0000000000
       973        10  SOPE      P             -12.7385819974        6.1908458160       20.3672481509  MEMB      10              0.0000000000
       974        10  SOPE      O13           -13.6558234645        6.4210449432       21.5144024921  MEMB      10              0.0000000000
       975        10  SOPE      O14           -12.7065131911        4.8036529913       19.8558415058  MEMB      10              0.0000000000
       976        10  SOPE      O12           -11.2047391691        6.5478815027       20.7231531175  MEMB      10              0.0000000000
       977        10  SOPE      O11           -13.1260451605        7.2964354194       19.3620897786  MEMB      10              0.0000000000
       978        10  SOPE      C1            -12.3064024482        7.4393486017       18.2161365878  MEMB      10              0.0000000000
       979        10  SOPE      HA            -11.8162694456        6.4838526567       17.9313241386  MEMB      10              0.0000000000
       980        10  SOPE      HB            -11.4495587686        8.1220809698       18.4005718652  MEMB      10              0.0000000000
       981        10  SOPE      C2            -13.0528712874        8.0596241833       17.0758485631  MEMB      10              0.0000000000
       982        10  SOPE      HS            -13.3006211634        9.1181212084       17.3050312308  MEMB      10              0.0000000000
       983        10  SOPE      O21           -14.2522537938        7.2641185726       16.8857054309  MEMB      10              0.0000000000
       984        10  SOPE      C21           -15.0679667758        7.4890846933       15.9284475428  MEMB      10              0.0000000000
       985        10  SOPE      O22           -15.0047341173        8.3632166197       15.0857894374  MEMB      10              0.0000000000
       986        10  SOPE      C22           -16.1900178915        6.4529458286       15.9347035166  MEMB      10              0.0000000000
       987        10  SOPE      H2R           -16.7442139275        6.3845005915       16.8951735792  MEMB      10              0.0000000000
       988        10  SOPE      H2S           -15.6207160804        5.5097362941       15.7912734775  MEMB      10              0.0000000000
       989        10  SOPE      C3            -12.2083921544        7.9625341170       15.7633257284  MEMB      10              0.0000000000
       990        10  SOPE      HX            -11.1863214817        8.3272764092       16.0013502359  MEMB      10              0.0000000000
       991        10  SOPE      HY            -12.5783530781        8.6308708118       14.9566190455  MEMB      10              0.0000000000
       992        10  SOPE      O31           -12.1399657853        6.6157771354       15.1812256919  MEMB      10              0.0000000000
       993        10  SOPE      C31           -10.9827091497        5.9352452712       15.2660377670  MEMB      10              0.0000000000
       994        10  SOPE      O32           -10.0207650609        6.2268386662       15.8876754163  MEMB      10              0.0000000000
       995        10  SOPE      C32           -10.9502257235        4.6373921259       14.3440545285  MEMB      10              0.0000000000
       996        10  SOPE      H2X           -10.8446099529        5.0675165806       13.3251538244  MEMB      10              0.0000000000
       997        10  SOPE      H2Y           -11.8418502961        3.9898405252       14.4854885682  MEMB      10              0.0000000000
       998        10  SOPE      C23           -17.2557965968        6.7851628919       14.9545771939  MEMB      10              0.0000000000
       999        10  SOPE      H3R           -17.7319809985        7.7853592686       15.0392902658  MEMB      10              0.0000000000
      1000        10  SOPE      H3S           -18.2005879240        6.2188607612       15.0994644705  MEMB      10              0.0000000000
      1001        10  SOPE      C24           -16.7462180476        6.4151717283       13.5202205545  MEMB      10              0.0000000000
      1002        10  SOPE      H4R           -15.7857252694        6.9309373518       13.3063035708  MEMB      10              0.0000000000
      1003        10  SOPE      H4S           -16.7844701484        5.3085014063       13.6104347719  MEMB      10              0.0000000000
      1004        10  SOPE      C25           -17.7287546824        6.5199616080       12.3239069171  MEMB      10              0.0000000000
      1005        10  SOPE      H5R           -18.7462973593        6.1585910281       12.5853246960  MEMB      10              0.0000000000
      1006        10  SOPE      H5S           -17.8125426309        7.6122864218       12.1391724541  MEMB      10              0.0000000000
      1007        10  SOPE      C26           -17.1971085684        5.8919175887       11.0348039852  MEMB      10              0.0000000000
      1008        10  SOPE      H6R           -16.8791902005        4.8728939144       11.3427645921  MEMB      10              0.0000000000
      1009        10  SOPE      H6S           -18.0317463714        5.7398491529       10.3174642884  MEMB      10              0.0000000000
      1010        10  SOPE      C27           -16.2411977548        6.8357842349       10.2366311889  MEMB      10              0.0000000000
      1011        10  SOPE      H7R           -16.4404787464        7.9285430959       10.2145821888  MEMB      10              0.0000000000
      1012        10  SOPE      H7S           -15.2080392177        6.7154877968       10.6270580399  MEMB      10              0.0000000000
      1013        10  SOPE      C28           -16.0771286111        6.3692194171        8.7098870457  MEMB      10              0.0000000000
      1014        10  SOPE      H8R           -16.8773584550        6.7285535414        8.0281006237  MEMB      10              0.0000000000
      1015        10  SOPE      H8S           -15.2791634038        6.9722335195        8.2262064844  MEMB      10              0.0000000000
      1016        10  SOPE      C29           -15.7180757547        4.9043777904        8.5437952247  MEMB      10              0.0000000000
      1017        10  SOPE      H91           -14.9054859282        4.6842607116        9.2517831270  MEMB      10              0.0000000000
      1018        10  SOPE      C210          -16.2240058266        4.0112855648        7.6649328825  MEMB      10              0.0000000000
      1019        10  SOPE      H101          -16.1013906551        2.9360257020        7.8618634924  MEMB      10              0.0000000000
      1020        10  SOPE      C211          -17.2641933377        4.2628690626        6.6330616186  MEMB      10              0.0000000000
      1021        10  SOPE      H11R          -18.1082983777        4.8772434705        7.0129979155  MEMB      10              0.0000000000
      1022        10  SOPE      H11S          -17.5669816613        3.2163318666        6.4153458209  MEMB      10              0.0000000000
      1023        10  SOPE      C212          -16.8718057102        4.8590709034        5.2627896063  MEMB      10              0.0000000000
      1024        10  SOPE      H12R          -16.9862436358        5.9618315025        5.1910691957  MEMB      10              0.0000000000
      1025        10  SOPE      H12S          -17.5823864749        4.3704861373        4.5623040150  MEMB      10              0.0000000000
      1026        10  SOPE      C213          -15.4364241086        4.5710016854        4.6745733733  MEMB      10              0.0000000000
      1027        10  SOPE      H13R          -15.3923309381        3.4679340096        4.5495992979  MEMB      10              0.0000000000
      1028        10  SOPE      H13S          -14.6452718135        4.9000997727        5.3817463075  MEMB      10              0.0000000000
      1029        10  SOPE      C214          -15.3050610520        5.3239236453        3.3400663809  MEMB      10              0.0000000000
      1030        10  SOPE      H14R          -14.2332662786        5.5067546399        3.1117028790  MEMB      10              0.0000000000
      1031        10  SOPE      H14S          -15.7117456769        6.3571508802        3.3770825860  MEMB      10              0.0000000000
      1032        10  SOPE      C215          -15.9913782480        4.6194897039        2.1233252502  MEMB      10              0.0000000000
      1033        10  SOPE      H15R          -16.9813248863        4.2015381127        2.4055363491  MEMB      10              0.0000000000
      1034        10  SOPE      H15S          -15.5090456673        3.6368183521        1.9335005216  MEMB      10              0.0000000000
      1035        10  SOPE      C216          -15.9985028972        5.4321482639        0.8735237598  MEMB      10              0.0000000000
      1036        10  SOPE      H16R          -16.0439544307        4.7233518088        0.0192028792  MEMB      10              0.0000000000
      1037        10  SOPE      H16S          -14.9270102191        5.7106270202        0.7803898817  MEMB      10              0.0000000000
      1038        10  SOPE      C217          -16.9628126833        6.5410669204        0.7125441972  MEMB      10              0.0000000000
      1039        10  SOPE      H17R          -16.8453245283        7.0532433802        1.6914170755  MEMB      10              0.0000000000
      1040        10  SOPE      H17S          -17.9872061409        6.1181759872        0.7906585111  MEMB      10              0.0000000000
      1041        10  SOPE      C218          -16.7814926937        7.4117514504       -0.5727672081  MEMB      10              0.0000000000
      1042        10  SOPE      H18R          -15.8273461209        7.9707100894       -0.4655729282  MEMB      10              0.0000000000
      1043        10  SOPE      H18S          -17.6046991048        8.1572910619       -0.6014476116  MEMB      10              0.0000000000
      1044        10  SOPE      H18T          -16.8384511460        6.8290839492       -1.5169986104  MEMB      10              0.0000000000
      1045        10  SOPE      C33            -9.6538539663        3.8247016495       14.4898866176  MEMB      10              0.0000000000
      1046        10  SOPE      H3X            -9.5136301530        3.5369655674       15.5537787663  MEMB      10              0.0000000000
      1047        10  SOPE      H3Y            -8.8274045655        4.4203296985       14.0465698810  MEMB      10              0.0000000000
      1048        10  SOPE      C34            -9.7232353287        2.4195910991       13.8280162129  MEMB      10              0.0000000000
      1049        10  SOPE      H4X           -10.6731040357        1.9210795234       14.1170778347  MEMB      10              0.0000000000
      1050        10  SOPE      H4Y            -8.8601200496        1.8550168811       14.2410643119  MEMB      10              0.0000000000
      1051        10  SOPE      C35            -9.5935119680        2.6020721465       12.2472997712  MEMB      10              0.0000000000
      1052        10  SOPE      H5X            -8.5335765730        2.8098524098       11.9871364112  MEMB      10              0.0000000000
      1053        10  SOPE      H5Y           -10.2082381925        3.4664047658       11.9166008805  MEMB      10              0.0000000000
      1054        10  SOPE      C36            -9.9741140257        1.3854415390       11.3790553920  MEMB      10              0.0000000000
      1055        10  SOPE      H6X            -9.3218980636        0.5927399680       11.8039786431  MEMB      10              0.0000000000
      1056        10  SOPE      H6Y            -9.6707668504        1.4905314784       10.3154490844  MEMB      10              0.0000000000
      1057        10  SOPE      C37           -11.4308105565        0.9160046375       11.4218944897  MEMB      10              0.0000000000
      1058        10  SOPE      H7X           -11.6433028986        0.4146871665       12.3903197166  MEMB      10              0.0000000000
      1059        10  SOPE      H7Y           -11.5583748071        0.1853142023       10.5947664108  MEMB      10              0.0000000000
      1060        10  SOPE      C38           -12.4382285592        1.9948101601       10.9393911672  MEMB      10              0.0000000000
      1061        10  SOPE      H8X           -12.3141811229        2.8486587511       11.6393023686  MEMB      10              0.0000000000
      1062        10  SOPE      H8Y           -13.4466784612        1.5520228800       11.0852992636  MEMB      10              0.0000000000
      1063        10  SOPE      C39           -12.3713391005        2.6781386850        9.5297473029  MEMB      10              0.0000000000
      1064        10  SOPE      H9X           -11.6296385111        3.5014316537        9.6096833361  MEMB      10              0.0000000000
      1065        10  SOPE      H9Y           -13.3664902860        3.0622364145        9.2191608653  MEMB      10              0.0000000000
      1066        10  SOPE      C310          -11.9377627859        1.7768979964        8.4142570243  MEMB      10              0.0000000000
      1067        10  SOPE      H10X          -12.6196129397        0.9012502344        8.3628557937  MEMB      10              0.0000000000
      1068        10  SOPE      H10Y          -11.0478985460        1.1742950114        8.6959172617  MEMB      10              0.0000000000
      1069        10  SOPE      C311          -11.7161317360        2.5989883012        7.1032707720  MEMB      10              0.0000000000
      1070        10  SOPE      H11X          -11.4028732375        3.6196001784        7.4107466807  MEMB      10              0.0000000000
      1071        10  SOPE      H11Y          -12.6472068863        2.7953251729        6.5297966911  MEMB      10              0.0000000000
      1072        10  SOPE      C312          -10.5068384289        1.9446160771        6.4064549778  MEMB      10              0.0000000000
      1073        10  SOPE      H12X          -10.8204460766        0.9244414533        6.0978862807  MEMB      10              0.0000000000
      1074        10  SOPE      H12Y           -9.6375027016        1.7719179516        7.0763448294  MEMB      10              0.0000000000
      1075        10  SOPE      C313          -10.1144080568        2.7060924251        5.1615884318  MEMB      10              0.0000000000
      1076        10  SOPE      H13X           -9.2356013107        2.2333325320        4.6732055007  MEMB      10              0.0000000000
      1077        10  SOPE      H13Y          -10.0321031249        3.7794008656        5.4364625787  MEMB      10              0.0000000000
      1078        10  SOPE      C314          -11.2614418868        2.5517989673        4.0504135576  MEMB      10              0.0000000000
      1079        10  SOPE      H14X          -12.1861331762        3.0396292734        4.4262974743  MEMB      10              0.0000000000
      1080        10  SOPE      H14Y          -11.4315215393        1.4599503552        3.9352622928  MEMB      10              0.0000000000
      1081        10  SOPE      C315          -10.9950371030        3.0984797564        2.6320460834  MEMB      10              0.0000000000
      1082        10  SOPE      H15X          -10.0682339276        2.5934274746        2.2852328067  MEMB      10              0.0000000000
      1083        10  SOPE      H15Y          -10.7080049646        4.1655742245        2.7471223943  MEMB      10              0.0000000000
      1084        10  SOPE      C316          -12.1259516837        2.9752517124        1.6416746123  MEMB      10              0.0000000000
      1085        10  SOPE      H16X          -13.0514680459        3.3586518809        2.1220343952  MEMB      10              0.0000000000
      1086        10  SOPE      H16Y          -12.2057793661        1.8948652324        1.3952733413  MEMB      10              0.0000000000
      1087        10  SOPE      C317          -11.8435754708        3.6666859132        0.3328191441  MEMB      10              0.0000000000
      1088        10  SOPE      H17X          -11.2525113069        4.5729332296        0.5851690670  MEMB      10              0.0000000000
      1089        10  SOPE      H17Y          -12.8062524294        3.9134108196       -0.1638693892  MEMB      10              0.0000000000
      1090        10  SOPE      C318          -10.8666430317        2.9364641497       -0.5863856610  MEMB      10              0.0000000000
      1091        10  SOPE      H18X          -10.7103907869        3.4705834060       -1.5479593624  MEMB      10              0.0000000000
      1092        10  SOPE      H18Y          -11.2576706548        1.9273410887       -0.8375603716  MEMB      10              0.0000000000
      1093        10  SOPE      H18Z           -9.8995184128        2.7238459568       -0.0826167073  MEMB      10              0.0000000000
      1094        11  OSM       N              10.9058771600       10.5736017198       21.9309373285  MEMB      11              0.0000000000
      1095        11  OSM       C15            12.0954197274       10.8240132627       22.8131303183  MEMB      11              0.0000000000
      1096        11  OSM       H15A           12.7656684043       10.0229960462       22.5382879671  MEMB      11              0.0000000000
      1097        11  OSM       H15B           11.8198462206       10.5993425858       23.8329255721  MEMB      11              0.0000000000
      1098        11  OSM       H15C           12.4885326867       11.8235337154       22.6999000582  MEMB      11              0.0000000000
      1099        11  OSM       C14             9.8599841632       11.6061923997       22.2258334713  MEMB      11              0.0000000000
      1100        11  OSM       H14A           10.0090025341       12.5340309907       21.6935659829  MEMB      11              0.0000000000
      1101        11  OSM       H14B            9.8917218487       11.8138910891       23.2851983237  MEMB      11              0.0000000000
      1102        11  OSM       H14C            8.9023748998       11.2418787081       21.8842779235  MEMB      11              0.0000000000
      1103        11  OSM       C13            11.3070118789       10.5844414930       20.4769796602  MEMB      11              0.0000000000
      1104        11  OSM       H13A           12.0768148679        9.8467564507       20.3048627829  MEMB      11              0.0000000000
      1105        11  OSM       H13B           11.6570692813       11.5535807451       20.1535152949  MEMB      11              0.0000000000
      1106        11  OSM       H13C           10.4392363997       10.4550563017       19.8471978407  MEMB      11              0.0000000000
      1107        11  OSM       C12            10.4328234677        9.1268225882       22.1102227238  MEMB      11              0.0000000000
      1108        11  OSM       H12A            9.8998612803        9.1818724712       23.0479437255  MEMB      11              0.0000000000
      1109        11  OSM       H12B           11.2420250259        8.4163636169       22.0275121552  MEMB      11              0.0000000000
      1110        11  OSM       C11             9.2760241680        8.7035893637       21.0680907175  MEMB      11              0.0000000000
      1111        11  OSM       H11A            8.9657332156        7.6928436657       21.4093145580  MEMB      11              0.0000000000
      1112        11  OSM       H11B            9.8489593182        8.6471634942       20.1178894811  MEMB      11              0.0000000000
      1113        11  OSM       P               6.9527901958        9.3171770050       20.0727450235  MEMB      11              0.0000000000
      1114        11  OSM       O13             6.0352768098        8.2963432536       20.6249640942  MEMB      11              0.0000000000
      1115        11  OSM       O14             6.3278769549       10.6286028924       19.7529861274  MEMB      11              0.0000000000
      1116        11  OSM       O11             7.6823814640        8.7867312234       18.8605624279  MEMB      11              0.0000000000
      1117        11  OSM       O12             8.1906389525        9.6424069646       21.0635481057  MEMB      11              0.0000000000
      1118        11  OSM       C1S             8.1759340137        9.6062074329       17.8387434104  MEMB      11              0.0000000000
      1119        11  OSM       H1S             8.9949829452       10.2729878020       18.1835385134  MEMB      11              0.0000000000
      1120        11  OSM       H1T             7.3401442191       10.2199253694       17.4398367253  MEMB      11              0.0000000000
      1121        11  OSM       NF              9.4688065575        9.4921328988       15.8085665199  MEMB      11              0.0000000000
      1122        11  OSM       HNF             9.0264922644        9.5705755679       14.9185025540  MEMB      11              0.0000000000
      1123        11  OSM       C2S             8.7016358773        8.7118473154       16.7004277218  MEMB      11              0.0000000000
      1124        11  OSM       H2S             9.3883737354        7.8999118433       17.0220997382  MEMB      11              0.0000000000
      1125        11  OSM       C3S             7.5203910736        8.0510445790       15.9540482653  MEMB      11              0.0000000000
      1126        11  OSM       H3S             6.8461618360        8.8183349856       15.5170113622  MEMB      11              0.0000000000
      1127        11  OSM       O3              6.6597902370        7.2266909277       16.7093344895  MEMB      11              0.0000000000
      1128        11  OSM       HO3             6.9404060530        7.4286936631       17.6049066057  MEMB      11              0.0000000000
      1129        11  OSM       C4S             8.1440453481        7.3029341955       14.7862668109  MEMB      11              0.0000000000
      1130        11  OSM       H4S             9.0766714628        6.7653478921       15.0125621190  MEMB      11              0.0000000000
      1131        11  OSM       C5S             7.7118164635        7.3666185486       13.5103079816  MEMB      11              0.0000000000
      1132        11  OSM       H5S             6.9579525297        8.1108327301       13.2139388609  MEMB      11              0.0000000000
      1133        11  OSM       C6S             8.3424591899        6.6411061301       12.3207989376  MEMB      11              0.0000000000
      1134        11  OSM       H6S             7.7337281646        6.8610499104       11.4178088694  MEMB      11              0.0000000000
      1135        11  OSM       H6T             8.3301234716        5.5443829976       12.4979071905  MEMB      11              0.0000000000
      1136        11  OSM       C7S             9.8966296391        6.9682009324       12.2078392333  MEMB      11              0.0000000000
      1137        11  OSM       H7S            10.3578600934        6.4249783578       13.0601867235  MEMB      11              0.0000000000
      1138        11  OSM       H7T            10.0200575332        8.0713689991       12.2537369748  MEMB      11              0.0000000000
      1139        11  OSM       C8S            10.5005419630        6.5007316444       10.9117443691  MEMB      11              0.0000000000
      1140        11  OSM       H8S            10.4447150647        5.3927474310       10.8519512762  MEMB      11              0.0000000000
      1141        11  OSM       H8T            11.5725283988        6.7432768577       11.0740334687  MEMB      11              0.0000000000
      1142        11  OSM       C9S            10.0797552749        7.1187492197        9.5379860796  MEMB      11              0.0000000000
      1143        11  OSM       H9S            10.3051243179        8.1886691330        9.7349671898  MEMB      11              0.0000000000
      1144        11  OSM       H9T             9.0209924167        6.9332862833        9.2570138543  MEMB      11              0.0000000000
      1145        11  OSM       C10S           10.8312175121        6.5667292150        8.3052750182  MEMB      11              0.0000000000
      1146        11  OSM       H10S           10.5101764620        5.5284190867        8.0746988066  MEMB      11              0.0000000000
      1147        11  OSM       H10T           11.8998083800        6.4901788671        8.5995106973  MEMB      11              0.0000000000
      1148        11  OSM       C11S           10.5974565684        7.4194158331        7.0576530272  MEMB      11              0.0000000000
      1149        11  OSM       H11S           10.7877640858        8.4952208259        7.2595131970  MEMB      11              0.0000000000
      1150        11  OSM       H11T            9.5474164468        7.4698575756        6.6982190266  MEMB      11              0.0000000000
      1151        11  OSM       C12S           11.6392455830        7.1697526733        5.9759551577  MEMB      11              0.0000000000
      1152        11  OSM       H12S           11.8163052103        6.1329647144        5.6181265190  MEMB      11              0.0000000000
      1153        11  OSM       H12T           12.6594695283        7.4754779555        6.2921771635  MEMB      11              0.0000000000
      1154        11  OSM       C13S           11.2431212722        7.7636826266        4.6563822626  MEMB      11              0.0000000000
      1155        11  OSM       H13S           10.9933075314        8.8363434072        4.8023719161  MEMB      11              0.0000000000
      1156        11  OSM       H13T           10.3379831058        7.2452730007        4.2738928694  MEMB      11              0.0000000000
      1157        11  OSM       C14S           12.3033597850        7.6191548454        3.4994899996  MEMB      11              0.0000000000
      1158        11  OSM       H14S           12.4756763848        6.5480883074        3.2598149792  MEMB      11              0.0000000000
      1159        11  OSM       H14T           13.2429461848        8.0685012400        3.8862536308  MEMB      11              0.0000000000
      1160        11  OSM       C15S           11.7960553754        8.4336321873        2.2567473061  MEMB      11              0.0000000000
      1161        11  OSM       H15S           12.5602956170        8.1995633737        1.4850801115  MEMB      11              0.0000000000
      1162        11  OSM       H15T           11.6969440496        9.5133771625        2.4989214617  MEMB      11              0.0000000000
      1163        11  OSM       C16S           10.4146234793        7.9616498077        1.6886463451  MEMB      11              0.0000000000
      1164        11  OSM       H16S            9.6289325154        7.9002496045        2.4717414718  MEMB      11              0.0000000000
      1165        11  OSM       H16T           10.3750389190        6.8819757904        1.4296897814  MEMB      11              0.0000000000
      1166        11  OSM       C17S            9.8914123803        8.7640370638        0.4125554506  MEMB      11              0.0000000000
      1167        11  OSM       H17S            9.6515167387        9.7881614214        0.7702425712  MEMB      11              0.0000000000
      1168        11  OSM       H17T            9.0916430583        8.1092719953        0.0051579396  MEMB      11              0.0000000000
      1169        11  OSM       C18S           10.8696922371        8.9345513504       -0.7681764576  MEMB      11              0.0000000000
      1170        11  OSM       H18S           10.2435055696        9.3570576984       -1.5828543742  MEMB      11              0.0000000000
      1171        11  OSM       H18T           11.2308151007        7.9496784183       -1.1341507143  MEMB      11              0.0000000000
      1172        11  OSM       H18U           11.7083596741        9.6343430835       -0.5650769874  MEMB      11              0.0000000000
      1173        11  OSM       C1F            10.6632560509       10.0278663108       16.1274711296  MEMB      11              0.0000000000
      1174        11  OSM       OF             11.1412395956       10.1029571758       17.2346651083  MEMB      11              0.0000000000
      1175        11  OSM       C2F            11.4725141869       10.6672139829       15.0170511119  MEMB      11              0.0000000000
      1176        11  OSM       H2F            11.8918464364        9.7926879581       14.4751230132  MEMB      11              0.0000000000
      1177        11  OSM       H2G            12.3009972588       11.2388432110       15.4873453783  MEMB      11              0.0000000000
      1178        11  OSM       C3F            10.6457314444       11.3355675380       13.9614215081  MEMB      11              0.0000000000
      1179        11  OSM       H3F            10.2995874709       12.2821999254       14.4287467020  MEMB      11              0.0000000000
      1180        11  OSM       H3G             9.7360577152       10.7242816702       13.7793655926  MEMB      11              0.0000000000
      1181        11  OSM       C4F            11.4735825477       11.7355357777       12.6737892474  MEMB      11              0.0000000000
      1182        11  OSM       H4F            11.9854444762       10.9129559558       12.1300239298  MEMB      11              0.0000000000
      1183        11  OSM       H4G            12.3034090018       12.4167961913       12.9594342195  MEMB      11              0.0000000000
      1184        11  OSM       C5F            10.5265944396       12.4351203400       11.7028530825  MEMB      11              0.0000000000
      1185        11  OSM       H5F            10.2812021150       13.4190860892       12.1566318907  MEMB      11              0.0000000000
      1186        11  OSM       H5G             9.6596725479       11.7451131515       11.6212571202  MEMB      11              0.0000000000
      1187        11  OSM       C6F            11.1031990814       12.6919957913       10.3079443094  MEMB      11              0.0000000000
      1188        11  OSM       H6F            12.0797193977       13.1949065376       10.4747072623  MEMB      11              0.0000000000
      1189        11  OSM       H6G            10.4117087756       13.3740019442        9.7684728096  MEMB      11              0.0000000000
      1190        11  OSM       C7F            11.3005805393       11.4530027143        9.4667821861  MEMB      11              0.0000000000
      1191        11  OSM       H7F            10.5788151266       10.6634222587        9.7666788575  MEMB      11              0.0000000000
      1192        11  OSM       H7G            12.2316933935       10.8808954399        9.6668901197  MEMB      11              0.0000000000
      1193        11  OSM       C8F            11.1841899047       11.5113863443        7.9629841019  MEMB      11              0.0000000000
      1194        11  OSM       H8F            11.4856163477       10.4933753333        7.6356963521  MEMB      11              0.0000000000
      1195        11  OSM       H8G            12.0192723972       12.1430773548        7.5916018106  MEMB      11              0.0000000000
      1196        11  OSM       C9F             9.7392943491       11.7407053355        7.6191232674  MEMB      11              0.0000000000
      1197        11  OSM       H9F             9.1212885383       11.7866843309        8.5279431277  MEMB      11              0.0000000000
      1198        11  OSM       C10F            9.3036080224       11.8773174013        6.3724689405  MEMB      11              0.0000000000
      1199        11  OSM       H10F            8.2141268948       12.0143478525        6.3072500643  MEMB      11              0.0000000000
      1200        11  OSM       C11F           10.1125963666       11.7558929376        5.1118603341  MEMB      11              0.0000000000
      1201        11  OSM       H11F           10.9771506026       11.1379273153        5.4358754100  MEMB      11              0.0000000000
      1202        11  OSM       H11G           10.2903512141       12.7964479156        4.7654939685  MEMB      11              0.0000000000
      1203        11  OSM       C12F            9.3258082163       11.2091307246        3.9205877683  MEMB      11              0.0000000000
      1204        11  OSM       H12F            9.0573334594       10.1528156499        4.1360872292  MEMB      11              0.0000000000
      1205        11  OSM       H12G           10.0738342893       11.2868415360        3.1028218017  MEMB      11              0.0000000000
      1206        11  OSM       C13F            8.2223106155       12.1644104728        3.3474401127  MEMB      11              0.0000000000
      1207        11  OSM       H13F            8.8403796113       13.0750852313        3.1958372948  MEMB      11              0.0000000000
      1208        11  OSM       H13G            7.3303020268       12.3261674593        3.9896836852  MEMB      11              0.0000000000
      1209        11  OSM       C14F            7.8602711796       11.8380034011        1.8621572414  MEMB      11              0.0000000000
      1210        11  OSM       H14F            7.4008258103       10.8271634455        1.9000189439  MEMB      11              0.0000000000
      1211        11  OSM       H14G            8.7207683896       11.8637719310        1.1598739601  MEMB      11              0.0000000000
      1212        11  OSM       C15F            6.7733220735       12.8278858163        1.3155967235  MEMB      11              0.0000000000
      1213        11  OSM       H15F            7.3677104382       13.6871410741        0.9378348259  MEMB      11              0.0000000000
      1214        11  OSM       H15G            6.0753328737       13.1406345580        2.1214006412  MEMB      11              0.0000000000
      1215        11  OSM       C16F            5.9910406347       12.2328975304        0.0875559643  MEMB      11              0.0000000000
      1216        11  OSM       H16F            5.3214254096       11.4071348196        0.4101273512  MEMB      11              0.0000000000
      1217        11  OSM       H16G            6.7447085992       11.7969496706       -0.6025567626  MEMB      11              0.0000000000
      1218        11  OSM       C17F            5.2292888207       13.3326629164       -0.6633253871  MEMB      11              0.0000000000
      1219        11  OSM       H17F            4.9290300831       12.9658261369       -1.6681108549  MEMB      11              0.0000000000
      1220        11  OSM       H17G            6.0238639385       14.0350351259       -0.9944506692  MEMB      11              0.0000000000
      1221        11  OSM       C18F            4.1638222495       13.9817113006        0.1187306109  MEMB      11              0.0000000000
      1222        11  OSM       H18F            3.6427757110       13.1958574651        0.7063228390  MEMB      11              0.0000000000
      1223        11  OSM       H18G            3.4640106365       14.4928418000       -0.5764890639  MEMB      11              0.0000000000
      1224        11  OSM       H18H            4.5045963439       14.7442830564        0.8513145398  MEMB      11              0.0000000000
      1225        12  CHL1      C3              1.5725998182       13.8327125301       17.3110900000  MEMB      12              0.0000000000
      1226        12  CHL1      H3              1.8754199473       12.7836023029       17.1061900000  MEMB      12              0.0000000000
      1227        12  CHL1      O3              1.6851346818       14.1494360699       18.6889100000  MEMB      12              0.0000000000
      1228        12  CHL1      H3'             1.4831337712       15.0875450692       18.6616200000  MEMB      12              0.0000000000
      1229        12  CHL1      C4              2.4448897044       14.8115013054       16.5818000000  MEMB      12              0.0000000000
      1230        12  CHL1      H4A             2.0522813916       15.7964615881       16.9135200000  MEMB      12              0.0000000000
      1231        12  CHL1      H4B             3.5145601279       14.7844679132       16.8807800000  MEMB      12              0.0000000000
      1232        12  CHL1      C5              2.2861905358       14.6463520057       15.1055600000  MEMB      12              0.0000000000
      1233        12  CHL1      C6              3.3969980465       14.6282567657       14.3302100000  MEMB      12              0.0000000000
      1234        12  CHL1      H6              4.3410363099       14.6868869529       14.8917800000  MEMB      12              0.0000000000
      1235        12  CHL1      C7              3.3676184661       14.3076193824       12.8608000000  MEMB      12              0.0000000000
      1236        12  CHL1      H7A             4.1887130337       14.8529224977       12.3481800000  MEMB      12              0.0000000000
      1237        12  CHL1      H7B             3.5171468061       13.2067992823       12.8486200000  MEMB      12              0.0000000000
      1238        12  CHL1      C8              1.9874259568       14.5348438699       12.1634100000  MEMB      12              0.0000000000
      1239        12  CHL1      H8              1.9414368071       15.6374019260       12.2921300000  MEMB      12              0.0000000000
      1240        12  CHL1      C14             1.9722023599       13.9415313009       10.7659000000  MEMB      12              0.0000000000
      1241        12  CHL1      H14             2.0061244232       12.8310448260       10.7645200000  MEMB      12              0.0000000000
      1242        12  CHL1      C15             2.9606790043       14.5378133341        9.7465500000  MEMB      12              0.0000000000
      1243        12  CHL1      H15A            2.9940182773       15.6213918261        9.9895800000  MEMB      12              0.0000000000
      1244        12  CHL1      H15B            3.9023982780       13.9649885662        9.8856900000  MEMB      12              0.0000000000
      1245        12  CHL1      C16             2.3826789785       14.0613147264        8.3773100000  MEMB      12              0.0000000000
      1246        12  CHL1      H16A            2.4745074036       14.9629182638        7.7346700000  MEMB      12              0.0000000000
      1247        12  CHL1      H16B            2.9275607290       13.2423649552        7.8608300000  MEMB      12              0.0000000000
      1248        12  CHL1      C17             0.9002459371       13.6588235323        8.5951800000  MEMB      12              0.0000000000
      1249        12  CHL1      H17             0.9626135800       12.5496025218        8.5867700000  MEMB      12              0.0000000000
      1250        12  CHL1      C13             0.5786637471       14.0934611012       10.0674700000  MEMB      12              0.0000000000
      1251        12  CHL1      C18             0.2211212209       15.5760520983        9.9602900000  MEMB      12              0.0000000000
      1252        12  CHL1      H18A            0.8734989765       16.1672247824        9.2826200000  MEMB      12              0.0000000000
      1253        12  CHL1      H18B           -0.7830645770       15.6513560437        9.4909600000  MEMB      12              0.0000000000
      1254        12  CHL1      H18C           -0.0046963174       16.0187366526       10.9539500000  MEMB      12              0.0000000000
      1255        12  CHL1      C12            -0.4486698069       13.2909675963       10.8903100000  MEMB      12              0.0000000000
      1256        12  CHL1      H12A           -1.4420292809       13.2740460675       10.3930500000  MEMB      12              0.0000000000
      1257        12  CHL1      H12B           -0.0362938721       12.2613518771       10.8257800000  MEMB      12              0.0000000000
      1258        12  CHL1      C11            -0.4561504655       13.9439674277       12.3282200000  MEMB      12              0.0000000000
      1259        12  CHL1      H11A           -1.0577683564       14.8738288861       12.2402900000  MEMB      12              0.0000000000
      1260        12  CHL1      H11B           -1.2576498684       13.3446627825       12.8106700000  MEMB      12              0.0000000000
      1261        12  CHL1      C9              0.9056168138       13.9336642056       13.0468400000  MEMB      12              0.0000000000
      1262        12  CHL1      H9              0.9771994245       12.8296894097       13.1490500000  MEMB      12              0.0000000000
      1263        12  CHL1      C10             0.8831401686       14.5435444765       14.4640200000  MEMB      12              0.0000000000
      1264        12  CHL1      C19             0.3200428729       16.0022337053       14.4738700000  MEMB      12              0.0000000000
      1265        12  CHL1      H19A            0.4040730993       16.4886977131       15.4691600000  MEMB      12              0.0000000000
      1266        12  CHL1      H19B            0.9173870209       16.6982089130       13.8468900000  MEMB      12              0.0000000000
      1267        12  CHL1      H19C           -0.7280939656       16.0669696931       14.1111800000  MEMB      12              0.0000000000
      1268        12  CHL1      C1              0.0225972664       13.6964079453       15.3731100000  MEMB      12              0.0000000000
      1269        12  CHL1      H1A            -1.0676438483       13.8426846986       15.2172100000  MEMB      12              0.0000000000
      1270        12  CHL1      H1B             0.2475419691       12.6235295618       15.1924300000  MEMB      12              0.0000000000
      1271        12  CHL1      C2              0.1585096165       14.0008674066       16.9025100000  MEMB      12              0.0000000000
      1272        12  CHL1      H2A            -0.3018452672       13.1491855543       17.4475200000  MEMB      12              0.0000000000
      1273        12  CHL1      H2B            -0.2622707009       15.0138196282       17.0791300000  MEMB      12              0.0000000000
      1274        12  CHL1      C20             0.0013608509       14.0493859758        7.3694300000  MEMB      12              0.0000000000
      1275        12  CHL1      H20             0.1091961464       15.1512621462        7.2769100000  MEMB      12              0.0000000000
      1276        12  CHL1      C21            -1.4841821212       13.8226082796        7.5739900000  MEMB      12              0.0000000000
      1277        12  CHL1      H21A           -1.9621313452       14.2496841280        6.6665300000  MEMB      12              0.0000000000
      1278        12  CHL1      H21B           -1.9770641595       14.2450993754        8.4756000000  MEMB      12              0.0000000000
      1279        12  CHL1      H21C           -1.7315175308       12.7425933324        7.4919600000  MEMB      12              0.0000000000
      1280        12  CHL1      C22             0.4686596217       13.4166238362        6.0870800000  MEMB      12              0.0000000000
      1281        12  CHL1      H22A            1.3090221890       12.6979565380        6.1949100000  MEMB      12              0.0000000000
      1282        12  CHL1      H22B           -0.3808610204       12.7666969718        5.7867200000  MEMB      12              0.0000000000
      1283        12  CHL1      C23             0.7468047873       14.3349922284        4.9421400000  MEMB      12              0.0000000000
      1284        12  CHL1      H23A           -0.0354383697       15.1182448953        4.8476700000  MEMB      12              0.0000000000
      1285        12  CHL1      H23B            1.6570966583       14.9690216643        5.0028900000  MEMB      12              0.0000000000
      1286        12  CHL1      C24             0.9149412026       13.5456461561        3.6169600000  MEMB      12              0.0000000000
      1287        12  CHL1      H24A            1.8848579187       13.0117407028        3.5245600000  MEMB      12              0.0000000000
      1288        12  CHL1      H24B            0.0546190044       12.8434005762        3.5851600000  MEMB      12              0.0000000000
      1289        12  CHL1      C25             0.9797643908       14.3205687886        2.2371800000  MEMB      12              0.0000000000
      1290        12  CHL1      H25             1.9934278651       14.7546917228        2.1017400000  MEMB      12              0.0000000000
      1291        12  CHL1      C26             0.6325599016       13.3926509296        1.0938500000  MEMB      12              0.0000000000
      1292        12  CHL1      H26A            0.5670936869       13.8646019397        0.0902100000  MEMB      12              0.0000000000
      1293        12  CHL1      H26B            1.4031132564       12.6092244139        0.9300800000  MEMB      12              0.0000000000
      1294        12  CHL1      H26C           -0.3539116146       12.9573878555        1.3616600000  MEMB      12              0.0000000000
      1295        12  CHL1      C27            -0.0811961356       15.4073020664        2.2223600000  MEMB      12              0.0000000000
      1296        12  CHL1      H27A            0.2369626744       16.1974907131        2.9355800000  MEMB      12              0.0000000000
      1297        12  CHL1      H27B           -0.2916925737       15.8589977188        1.2293900000  MEMB      12              0.0000000000
      1298        12  CHL1      H27C           -1.1147825972       15.1067744472        2.4975000000  MEMB      12              0.0000000000
      1299        13  CHL1      C3             -4.3477112095      -13.6835219762       17.3822600000  MEMB      13              0.0000000000
      1300        13  CHL1      H3             -5.4314651607      -13.4472291910       17.4452000000  MEMB      13              0.0000000000
      1301        13  CHL1      O3             -3.8205340705      -14.0324488238       18.6177400000  MEMB      13              0.0000000000
      1302        13  CHL1      H3'            -3.7312250121      -13.2162068981       19.1151100000  MEMB      13              0.0000000000
      1303        13  CHL1      C4             -4.1676222973      -14.9565142590       16.4379500000  MEMB      13              0.0000000000
      1304        13  CHL1      H4A            -3.1091539296      -15.2867280247       16.3677400000  MEMB      13              0.0000000000
      1305        13  CHL1      H4B            -4.7847446953      -15.8000764666       16.8146200000  MEMB      13              0.0000000000
      1306        13  CHL1      C5             -4.4922516100      -14.7363086673       14.9552800000  MEMB      13              0.0000000000
      1307        13  CHL1      C6             -5.4213723801      -15.5850546115       14.3855700000  MEMB      13              0.0000000000
      1308        13  CHL1      H6             -5.7491691707      -16.4284456016       15.0110600000  MEMB      13              0.0000000000
      1309        13  CHL1      C7             -5.8847535198      -15.5368956618       12.9467900000  MEMB      13              0.0000000000
      1310        13  CHL1      H7A            -5.8456076112      -16.5328567217       12.4560200000  MEMB      13              0.0000000000
      1311        13  CHL1      H7B            -6.9233488248      -15.1619476377       12.8241100000  MEMB      13              0.0000000000
      1312        13  CHL1      C8             -5.0593428241      -14.4640358451       12.1872400000  MEMB      13              0.0000000000
      1313        13  CHL1      H8             -4.0310019523      -14.7850013629       11.9155400000  MEMB      13              0.0000000000
      1314        13  CHL1      C14            -5.8745961134      -14.0889131643       10.9237500000  MEMB      13              0.0000000000
      1315        13  CHL1      H14            -6.9052920421      -13.7251237804       11.1228500000  MEMB      13              0.0000000000
      1316        13  CHL1      C15            -5.9898813280      -15.2988148916        9.9997400000  MEMB      13              0.0000000000
      1317        13  CHL1      H15A           -5.1159245981      -15.9739281391        9.8783500000  MEMB      13              0.0000000000
      1318        13  CHL1      H15B           -6.8181571757      -15.9947383554       10.2526800000  MEMB      13              0.0000000000
      1319        13  CHL1      C16            -6.2151842177      -14.5796184161        8.6336800000  MEMB      13              0.0000000000
      1320        13  CHL1      H16A           -5.3356539077      -14.8781838954        8.0240900000  MEMB      13              0.0000000000
      1321        13  CHL1      H16B           -7.1828428467      -14.8233306323        8.1452600000  MEMB      13              0.0000000000
      1322        13  CHL1      C17            -6.0978287008      -13.0525567842        8.8997000000  MEMB      13              0.0000000000
      1323        13  CHL1      H17            -7.0663110010      -12.6525185518        9.2689200000  MEMB      13              0.0000000000
      1324        13  CHL1      C13            -5.2563460392      -12.9160572047       10.1679900000  MEMB      13              0.0000000000
      1325        13  CHL1      C18            -3.7440584850      -13.2256952792        9.7389400000  MEMB      13              0.0000000000
      1326        13  CHL1      H18A           -3.6407943829      -14.1416082674        9.1186600000  MEMB      13              0.0000000000
      1327        13  CHL1      H18B           -3.2800032694      -12.4075138052        9.1477200000  MEMB      13              0.0000000000
      1328        13  CHL1      H18C           -3.0707353543      -13.3811331242       10.6088700000  MEMB      13              0.0000000000
      1329        13  CHL1      C12            -5.2779762561      -11.6069881100       11.1076100000  MEMB      13              0.0000000000
      1330        13  CHL1      H12A           -4.8218439802      -10.7572921945       10.5560100000  MEMB      13              0.0000000000
      1331        13  CHL1      H12B           -6.3501498636      -11.3561970269       11.2554800000  MEMB      13              0.0000000000
      1332        13  CHL1      C11            -4.4368505993      -11.8238380607       12.3924700000  MEMB      13              0.0000000000
      1333        13  CHL1      H11A           -3.3685045730      -11.8032205395       12.0883000000  MEMB      13              0.0000000000
      1334        13  CHL1      H11B           -4.6142958576      -10.9158155383       13.0075500000  MEMB      13              0.0000000000
      1335        13  CHL1      C9             -4.8777095850      -13.1564483350       13.1106200000  MEMB      13              0.0000000000
      1336        13  CHL1      H9             -5.9024089194      -12.9825169701       13.5031200000  MEMB      13              0.0000000000
      1337        13  CHL1      C10            -4.0128942411      -13.3938710742       14.3082800000  MEMB      13              0.0000000000
      1338        13  CHL1      C19            -2.4862821136      -13.5163777120       13.9061500000  MEMB      13              0.0000000000
      1339        13  CHL1      H19A           -2.3263927285      -14.4620746676       13.3454300000  MEMB      13              0.0000000000
      1340        13  CHL1      H19B           -2.1960794654      -12.6617451620       13.2583100000  MEMB      13              0.0000000000
      1341        13  CHL1      H19C           -1.8978817096      -13.5894524646       14.8457000000  MEMB      13              0.0000000000
      1342        13  CHL1      C1             -4.2198984245      -12.2487169432       15.3746200000  MEMB      13              0.0000000000
      1343        13  CHL1      H1A            -3.8582582115      -11.3208378879       14.8820900000  MEMB      13              0.0000000000
      1344        13  CHL1      H1B            -5.2863164044      -12.0556177664       15.6191300000  MEMB      13              0.0000000000
      1345        13  CHL1      C2             -3.6561200764      -12.4763848036       16.8005400000  MEMB      13              0.0000000000
      1346        13  CHL1      H2A            -3.9334605032      -11.6269280750       17.4607100000  MEMB      13              0.0000000000
      1347        13  CHL1      H2B            -2.5575200937      -12.6401948699       16.8241400000  MEMB      13              0.0000000000
      1348        13  CHL1      C20            -5.6686065153      -12.1665224657        7.6883200000  MEMB      13              0.0000000000
      1349        13  CHL1      H20            -4.6638414461      -12.5901072367        7.4753800000  MEMB      13              0.0000000000
      1350        13  CHL1      C21            -5.7039736385      -10.6710221977        7.8295300000  MEMB      13              0.0000000000
      1351        13  CHL1      H21A           -5.0149729813      -10.2993358938        8.6178400000  MEMB      13              0.0000000000
      1352        13  CHL1      H21B           -6.7545035867      -10.4454749061        8.1121100000  MEMB      13              0.0000000000
      1353        13  CHL1      H21C           -5.4612256943      -10.1639161883        6.8712900000  MEMB      13              0.0000000000
      1354        13  CHL1      C22            -6.4247947119      -12.4874349276        6.3525600000  MEMB      13              0.0000000000
      1355        13  CHL1      H22A           -6.6327175543      -13.5767363150        6.2854400000  MEMB      13              0.0000000000
      1356        13  CHL1      H22B           -7.3883351227      -11.9383479493        6.2861500000  MEMB      13              0.0000000000
      1357        13  CHL1      C23            -5.5555389143      -12.1504641715        5.1338400000  MEMB      13              0.0000000000
      1358        13  CHL1      H23A           -4.7447276112      -11.4359270520        5.3914100000  MEMB      13              0.0000000000
      1359        13  CHL1      H23B           -4.9913985950      -13.0670766376        4.8583300000  MEMB      13              0.0000000000
      1360        13  CHL1      C24            -6.4270524565      -11.6357632404        3.9895600000  MEMB      13              0.0000000000
      1361        13  CHL1      H24A           -7.1387197470      -12.3529577566        3.5275100000  MEMB      13              0.0000000000
      1362        13  CHL1      H24B           -7.0306160570      -10.7534890022        4.2922500000  MEMB      13              0.0000000000
      1363        13  CHL1      C25            -5.7001207273      -11.1694706688        2.6947600000  MEMB      13              0.0000000000
      1364        13  CHL1      H25            -5.0248380574      -10.3439252195        3.0059000000  MEMB      13              0.0000000000
      1365        13  CHL1      C26            -5.0429803926      -12.2988474156        1.8611400000  MEMB      13              0.0000000000
      1366        13  CHL1      H26A           -5.8434504034      -13.0254750798        1.6050600000  MEMB      13              0.0000000000
      1367        13  CHL1      H26B           -4.4318555362      -11.8630902371        1.0420100000  MEMB      13              0.0000000000
      1368        13  CHL1      H26C           -4.2973294973      -12.7392623168        2.5571000000  MEMB      13              0.0000000000
      1369        13  CHL1      C27            -6.6933461414      -10.5773325861        1.6813500000  MEMB      13              0.0000000000
      1370        13  CHL1      H27A           -6.4338275466      -10.4136856103        0.6135600000  MEMB      13              0.0000000000
      1371        13  CHL1      H27B           -7.6069276731      -11.2074949286        1.6306700000  MEMB      13              0.0000000000
      1372        13  CHL1      H27C           -7.1024627260       -9.6315193205        2.0965300000  MEMB      13              0.0000000000
      1373        14  CHL1      C3            -10.6395411993       -9.7111542896       17.3297300000  MEMB      14              0.0000000000
      1374        14  CHL1      H3             -9.9173940007      -10.4639842558       16.9475500000  MEMB      14              0.0000000000
      1375        14  CHL1      O3            -10.8806340007       -9.6780684904       18.6702700000  MEMB      14              0.0000000000
      1376        14  CHL1      H3'           -10.0027211074       -9.6801161229       19.0586800000  MEMB      14              0.0000000000
      1377        14  CHL1      C4             -9.9334711063       -8.4077925891       16.8626600000  MEMB      14              0.0000000000
      1378        14  CHL1      H4A           -10.4893788056       -7.5493031043       17.2965800000  MEMB      14              0.0000000000
      1379        14  CHL1      H4B            -8.9334703064       -8.3169987940       17.3381400000  MEMB      14              0.0000000000
      1380        14  CHL1      C5             -9.7559402581       -8.4089495016       15.3371400000  MEMB      14              0.0000000000
      1381        14  CHL1      C6             -8.5384912871       -8.2849092424       14.8160100000  MEMB      14              0.0000000000
      1382        14  CHL1      H6             -7.6636943519       -8.1968281724       15.4770500000  MEMB      14              0.0000000000
      1383        14  CHL1      C7             -8.2074545016       -7.9998563154       13.3261700000  MEMB      14              0.0000000000
      1384        14  CHL1      H7A            -7.4855198780       -7.1557928902       13.3002800000  MEMB      14              0.0000000000
      1385        14  CHL1      H7B            -7.7770230648       -8.8460106450       12.7490400000  MEMB      14              0.0000000000
      1386        14  CHL1      C8             -9.5693641318       -7.5904661375       12.6309600000  MEMB      14              0.0000000000
      1387        14  CHL1      H8             -9.8339171918       -6.5388103444       12.8725300000  MEMB      14              0.0000000000
      1388        14  CHL1      C14            -9.3826347764       -7.8014721250       11.1125600000  MEMB      14              0.0000000000
      1389        14  CHL1      H14            -9.1897905846       -8.8911103803       11.0134800000  MEMB      14              0.0000000000
      1390        14  CHL1      C15            -8.2318114050       -7.1330426558       10.4315800000  MEMB      14              0.0000000000
      1391        14  CHL1      H15A           -8.1227538528       -6.0373492366       10.5795700000  MEMB      14              0.0000000000
      1392        14  CHL1      H15B           -7.2240107357       -7.5100238712       10.7082500000  MEMB      14              0.0000000000
      1393        14  CHL1      C16            -8.4668680140       -7.4256290496        8.9763100000  MEMB      14              0.0000000000
      1394        14  CHL1      H16A           -8.2485322505       -6.4550791937        8.4816400000  MEMB      14              0.0000000000
      1395        14  CHL1      H16B           -7.7671958387       -8.2340682735        8.6743200000  MEMB      14              0.0000000000
      1396        14  CHL1      C17            -9.9130151701       -8.0190632822        8.8688900000  MEMB      14              0.0000000000
      1397        14  CHL1      H17            -9.7393769370       -9.1137123403        8.7919900000  MEMB      14              0.0000000000
      1398        14  CHL1      C13           -10.5587427222       -7.6419543189       10.1749800000  MEMB      14              0.0000000000
      1399        14  CHL1      C18           -11.0980483924       -6.2299782214       10.0025400000  MEMB      14              0.0000000000
      1400        14  CHL1      H18A          -10.3126367975       -5.6365429347        9.4874800000  MEMB      14              0.0000000000
      1401        14  CHL1      H18B          -12.0659219818       -6.1382871455        9.4648300000  MEMB      14              0.0000000000
      1402        14  CHL1      H18C          -11.1403229201       -5.6836804516       10.9690300000  MEMB      14              0.0000000000
      1403        14  CHL1      C12           -11.6863683564       -8.5324573983       10.6113600000  MEMB      14              0.0000000000
      1404        14  CHL1      H12A          -12.6006987810       -8.3334601491       10.0124300000  MEMB      14              0.0000000000
      1405        14  CHL1      H12B          -11.5053981538       -9.6252558560       10.5255200000  MEMB      14              0.0000000000
      1406        14  CHL1      C11           -11.9755232233       -8.3200012123       12.1030600000  MEMB      14              0.0000000000
      1407        14  CHL1      H11A          -12.1729435009       -7.2267212624       12.1120900000  MEMB      14              0.0000000000
      1408        14  CHL1      H11B          -12.8575650607       -8.9407215360       12.3695500000  MEMB      14              0.0000000000
      1409        14  CHL1      C9            -10.6826129749       -8.6111443753       13.0075300000  MEMB      14              0.0000000000
      1410        14  CHL1      H9            -10.2950339124       -9.6331503368       12.8084800000  MEMB      14              0.0000000000
      1411        14  CHL1      C10           -10.9855872253       -8.4695601630       14.5364100000  MEMB      14              0.0000000000
      1412        14  CHL1      C19           -11.8448693084       -7.1404854684       14.8297000000  MEMB      14              0.0000000000
      1413        14  CHL1      H19A          -12.7945820820       -7.1184703480       14.2536000000  MEMB      14              0.0000000000
      1414        14  CHL1      H19B          -12.1224623702       -7.1622541923       15.9052400000  MEMB      14              0.0000000000
      1415        14  CHL1      H19C          -11.3004617940       -6.1901404424       14.6432100000  MEMB      14              0.0000000000
      1416        14  CHL1      C1            -11.7579945304       -9.7526077406       15.0270700000  MEMB      14              0.0000000000
      1417        14  CHL1      H1A           -12.7569228306       -9.6705424082       14.5477900000  MEMB      14              0.0000000000
      1418        14  CHL1      H1B           -11.2607083349      -10.6796768164       14.6699100000  MEMB      14              0.0000000000
      1419        14  CHL1      C2            -11.9288636763       -9.8753442429       16.5603600000  MEMB      14              0.0000000000
      1420        14  CHL1      H2A           -12.3752543478      -10.8645659023       16.7980500000  MEMB      14              0.0000000000
      1421        14  CHL1      H2B           -12.6570487532       -9.1305566721       16.9468200000  MEMB      14              0.0000000000
      1422        14  CHL1      C20           -10.5685593353       -7.6236321518        7.5382200000  MEMB      14              0.0000000000
      1423        14  CHL1      H20           -10.7601052171       -6.5571699810        7.7837100000  MEMB      14              0.0000000000
      1424        14  CHL1      C21           -11.8764216122       -8.1833341049        7.0582700000  MEMB      14              0.0000000000
      1425        14  CHL1      H21A          -12.6910367197       -7.5142455586        7.4090400000  MEMB      14              0.0000000000
      1426        14  CHL1      H21B          -11.8443506235       -9.2286485606        7.4332500000  MEMB      14              0.0000000000
      1427        14  CHL1      H21C          -11.9263301683       -8.3697020477        5.9641500000  MEMB      14              0.0000000000
      1428        14  CHL1      C22            -9.5844710963       -7.6613264905        6.3798000000  MEMB      14              0.0000000000
      1429        14  CHL1      H22A          -10.0714148744       -7.0226842949        5.6121200000  MEMB      14              0.0000000000
      1430        14  CHL1      H22B           -8.6303408565       -7.1325237295        6.5903200000  MEMB      14              0.0000000000
      1431        14  CHL1      C23            -9.2804548596       -9.0454741190        5.8187800000  MEMB      14              0.0000000000
      1432        14  CHL1      H23A           -8.5044843954       -9.4005614033        6.5301900000  MEMB      14              0.0000000000
      1433        14  CHL1      H23B          -10.0794294768       -9.8164980626        5.8574300000  MEMB      14              0.0000000000
      1434        14  CHL1      C24            -8.9204928841       -9.0666934291        4.3105300000  MEMB      14              0.0000000000
      1435        14  CHL1      H24A           -9.8791879185       -8.9803434232        3.7557600000  MEMB      14              0.0000000000
      1436        14  CHL1      H24B           -8.3255161480       -8.1942124302        3.9654300000  MEMB      14              0.0000000000
      1437        14  CHL1      C25            -8.2615608711      -10.4145066783        3.7980600000  MEMB      14              0.0000000000
      1438        14  CHL1      H25            -8.8958029312      -11.2382714528        4.1898300000  MEMB      14              0.0000000000
      1439        14  CHL1      C26            -8.2807732470      -10.4858188029        2.2521200000  MEMB      14              0.0000000000
      1440        14  CHL1      H26A           -8.0342623816      -11.5367507104        1.9892400000  MEMB      14              0.0000000000
      1441        14  CHL1      H26B           -9.2992037528      -10.2616500839        1.8688800000  MEMB      14              0.0000000000
      1442        14  CHL1      H26C           -7.5901049283       -9.7569387023        1.7766900000  MEMB      14              0.0000000000
      1443        14  CHL1      C27            -6.8426803095      -10.5638167919        4.2706200000  MEMB      14              0.0000000000
      1444        14  CHL1      H27A           -6.4280227208      -11.5761333200        4.0767100000  MEMB      14              0.0000000000
      1445        14  CHL1      H27B           -6.2237835874       -9.8326947893        3.7078200000  MEMB      14              0.0000000000
      1446        14  CHL1      H27C           -6.8499954060      -10.4292955468        5.3734200000  MEMB      14              0.0000000000
      1447        15  OSM       N              15.8296732947       -0.0124580603       20.7754715462  MEMB      15              0.0000000000
      1448        15  OSM       C15            14.7326266889       -0.1959071706       21.8154209793  MEMB      15              0.0000000000
      1449        15  OSM       H15A           13.8090886079       -0.4799701599       21.3329421384  MEMB      15              0.0000000000
      1450        15  OSM       H15B           14.5218125175        0.7061546736       22.3706160972  MEMB      15              0.0000000000
      1451        15  OSM       H15C           15.0508115704       -0.9515430703       22.5183951839  MEMB      15              0.0000000000
      1452        15  OSM       C14            15.2901031711        0.8342464746       19.6874284182  MEMB      15              0.0000000000
      1453        15  OSM       H14A           14.5025508003        0.3884079927       19.0980308766  MEMB      15              0.0000000000
      1454        15  OSM       H14B           16.0418101376        1.1606964107       18.9840316651  MEMB      15              0.0000000000
      1455        15  OSM       H14C           14.8551421418        1.7297301681       20.1061376734  MEMB      15              0.0000000000
      1456        15  OSM       C13            17.0196794234        0.5346449903       21.5442821194  MEMB      15              0.0000000000
      1457        15  OSM       H13A           16.9154066998        1.5399923688       21.9248132181  MEMB      15              0.0000000000
      1458        15  OSM       H13B           17.6948837553        0.8258980904       20.7532886697  MEMB      15              0.0000000000
      1459        15  OSM       H13C           17.4659816909       -0.0901393721       22.3037942683  MEMB      15              0.0000000000
      1460        15  OSM       C12            16.2936066480       -1.3204923350       20.1089843126  MEMB      15              0.0000000000
      1461        15  OSM       H12A           17.1549002035       -1.1035078072       19.4945812605  MEMB      15              0.0000000000
      1462        15  OSM       H12B           15.4277482021       -1.6746925807       19.5693256598  MEMB      15              0.0000000000
      1463        15  OSM       C11            16.7355105509       -2.5720315568       20.9822610988  MEMB      15              0.0000000000
      1464        15  OSM       H11A           16.9394819788       -3.5701834182       20.5390803500  MEMB      15              0.0000000000
      1465        15  OSM       H11B           15.8599923522       -2.8935214703       21.5859440465  MEMB      15              0.0000000000
      1466        15  OSM       P              19.3172333524       -2.3244837014       21.2713172646  MEMB      15              0.0000000000
      1467        15  OSM       O13            19.9888504257       -1.0355793270       21.4712020402  MEMB      15              0.0000000000
      1468        15  OSM       O14            20.0464551927       -3.4783882630       21.7853533627  MEMB      15              0.0000000000
      1469        15  OSM       O11            19.1386049458       -2.4423842892       19.6809155275  MEMB      15              0.0000000000
      1470        15  OSM       O12            17.8357607076       -2.2819852653       21.8773633292  MEMB      15              0.0000000000
      1471        15  OSM       C1S            19.9574020841       -3.2787213950       18.8982456238  MEMB      15              0.0000000000
      1472        15  OSM       H1S            20.0571612728       -4.2776512746       19.3741747384  MEMB      15              0.0000000000
      1473        15  OSM       H1T            20.9452287258       -2.7744916884       18.8328831914  MEMB      15              0.0000000000
      1474        15  OSM       NF             18.8519425400       -2.2226211923       16.9725114699  MEMB      15              0.0000000000
      1475        15  OSM       HNF            17.8680443344       -2.0785635146       16.9003955544  MEMB      15              0.0000000000
      1476        15  OSM       C2S            19.2402864544       -3.5256947250       17.5402410820  MEMB      15              0.0000000000
      1477        15  OSM       H2S            19.8655243172       -4.0612149696       16.7941735345  MEMB      15              0.0000000000
      1478        15  OSM       C3S            17.9983297054       -4.4859126375       17.7823517209  MEMB      15              0.0000000000
      1479        15  OSM       H3S            17.3206787620       -3.9635397266       18.4910382184  MEMB      15              0.0000000000
      1480        15  OSM       O3             18.4108550745       -5.7329970481       18.3129218411  MEMB      15              0.0000000000
      1481        15  OSM       HO3            19.3671234995       -5.8074503391       18.3530142442  MEMB      15              0.0000000000
      1482        15  OSM       C4S            17.2041029701       -4.6415075716       16.5234538794  MEMB      15              0.0000000000
      1483        15  OSM       H4S            16.1899906350       -4.2233893640       16.4412752427  MEMB      15              0.0000000000
      1484        15  OSM       C5S            17.6291638536       -5.3651486778       15.5169013202  MEMB      15              0.0000000000
      1485        15  OSM       H5S            18.4069759708       -6.1251761278       15.6823290245  MEMB      15              0.0000000000
      1486        15  OSM       C6S            16.8788869336       -5.5131287068       14.2110376985  MEMB      15              0.0000000000
      1487        15  OSM       H6S            15.8315940777       -5.7726526186       14.4758886781  MEMB      15              0.0000000000
      1488        15  OSM       H6T            17.2327012704       -6.3412405737       13.5603716011  MEMB      15              0.0000000000
      1489        15  OSM       C7S            16.9959580055       -4.2137545323       13.3534824863  MEMB      15              0.0000000000
      1490        15  OSM       H7S            18.0857599485       -4.0445192396       13.2192734474  MEMB      15              0.0000000000
      1491        15  OSM       H7T            16.6895428897       -3.3570941543       13.9911064633  MEMB      15              0.0000000000
      1492        15  OSM       C8S            16.3685677019       -4.3359760464       11.9619283032  MEMB      15              0.0000000000
      1493        15  OSM       H8S            16.6302727660       -5.3489949483       11.5882651202  MEMB      15              0.0000000000
      1494        15  OSM       H8T            16.9086264068       -3.5149683038       11.4436586643  MEMB      15              0.0000000000
      1495        15  OSM       C9S            14.8204261253       -4.2104130130       11.8437271800  MEMB      15              0.0000000000
      1496        15  OSM       H9S            14.3223018832       -4.4454201435       12.8085924830  MEMB      15              0.0000000000
      1497        15  OSM       H9T            14.5187477486       -5.0521970625       11.1844015145  MEMB      15              0.0000000000
      1498        15  OSM       C10S           14.3899275985       -2.8875184868       11.2824718465  MEMB      15              0.0000000000
      1499        15  OSM       H10S           14.8247306605       -2.0952123596       11.9286281500  MEMB      15              0.0000000000
      1500        15  OSM       H10T           13.2802112098       -2.8558955609       11.3254927806  MEMB      15              0.0000000000
      1501        15  OSM       C11S           14.7853905761       -2.7759982884        9.7553421272  MEMB      15              0.0000000000
      1502        15  OSM       H11S           14.4375397545       -3.6428300986        9.1537407163  MEMB      15              0.0000000000
      1503        15  OSM       H11T           15.8960766637       -2.7714205378        9.7293359992  MEMB      15              0.0000000000
      1504        15  OSM       C12S           14.1616043687       -1.5111271178        9.1886540333  MEMB      15              0.0000000000
      1505        15  OSM       H12S           14.4584869821       -0.6696223637        9.8505084125  MEMB      15              0.0000000000
      1506        15  OSM       H12T           13.0595827726       -1.4785454228        9.0515107513  MEMB      15              0.0000000000
      1507        15  OSM       C13S           15.0076485052       -1.1475326514        7.9819734613  MEMB      15              0.0000000000
      1508        15  OSM       H13S           16.0641041238       -0.8842101177        8.2030709276  MEMB      15              0.0000000000
      1509        15  OSM       H13T           14.4733907039       -0.2305940458        7.6531678294  MEMB      15              0.0000000000
      1510        15  OSM       C14S           15.0139533536       -2.1309883174        6.7218427144  MEMB      15              0.0000000000
      1511        15  OSM       H14S           14.1429917069       -2.8036187632        6.8745358385  MEMB      15              0.0000000000
      1512        15  OSM       H14T           15.9031124338       -2.7842489299        6.8521021823  MEMB      15              0.0000000000
      1513        15  OSM       C15S           14.9205111915       -1.4161195541        5.3285131113  MEMB      15              0.0000000000
      1514        15  OSM       H15S           13.8651933265       -1.0984055195        5.1882183471  MEMB      15              0.0000000000
      1515        15  OSM       H15T           15.1549848940       -2.2160666317        4.5940557915  MEMB      15              0.0000000000
      1516        15  OSM       C16S           15.6945850555       -0.1310616397        5.1539473227  MEMB      15              0.0000000000
      1517        15  OSM       H16S           16.7823877328       -0.2993748151        5.3045362289  MEMB      15              0.0000000000
      1518        15  OSM       H16T           15.4491797347        0.6172313878        5.9376272868  MEMB      15              0.0000000000
      1519        15  OSM       C17S           15.4817702419        0.6133036710        3.8336042916  MEMB      15              0.0000000000
      1520        15  OSM       H17S           15.9089433664        1.6384019393        3.8655106127  MEMB      15              0.0000000000
      1521        15  OSM       H17T           14.3956911887        0.7369926873        3.6349729339  MEMB      15              0.0000000000
      1522        15  OSM       C18S           16.1930431181       -0.0799752388        2.6201772562  MEMB      15              0.0000000000
      1523        15  OSM       H18S           15.7262252191       -1.0872179398        2.5770012030  MEMB      15              0.0000000000
      1524        15  OSM       H18T           17.2726428868       -0.1380442598        2.8759384605  MEMB      15              0.0000000000
      1525        15  OSM       H18U           16.1951775546        0.5544889253        1.7081623302  MEMB      15              0.0000000000
      1526        15  OSM       C1F            19.7184104743       -1.2178287123       16.6183645640  MEMB      15              0.0000000000
      1527        15  OSM       OF             20.8790754945       -1.1492183092       16.9998547126  MEMB      15              0.0000000000
      1528        15  OSM       C2F            19.2023341580       -0.0549996029       15.7597725032  MEMB      15              0.0000000000
      1529        15  OSM       H2F            18.5798081222        0.6361231563       16.3673345269  MEMB      15              0.0000000000
      1530        15  OSM       H2G            18.5506992263       -0.6178846663       15.0577377831  MEMB      15              0.0000000000
      1531        15  OSM       C3F            20.2844174161        0.7885452112       15.1864037858  MEMB      15              0.0000000000
      1532        15  OSM       H3F            21.0057805356        0.1625035294       14.6189287698  MEMB      15              0.0000000000
      1533        15  OSM       H3G            21.0300621896        1.1386824611       15.9318824846  MEMB      15              0.0000000000
      1534        15  OSM       C4F            19.8376102338        1.9032483121       14.3664256081  MEMB      15              0.0000000000
      1535        15  OSM       H4F            20.6648693520        2.6393326605       14.2761859694  MEMB      15              0.0000000000
      1536        15  OSM       H4G            19.0295538628        2.4554910459       14.8921573472  MEMB      15              0.0000000000
      1537        15  OSM       C5F            19.2328659908        1.6409624096       13.0409477949  MEMB      15              0.0000000000
      1538        15  OSM       H5F            18.7901530512        2.5445176518       12.5698705964  MEMB      15              0.0000000000
      1539        15  OSM       H5G            18.4683837082        0.8350462115       13.0212729899  MEMB      15              0.0000000000
      1540        15  OSM       C6F            20.3005672653        1.1078278835       11.9944312443  MEMB      15              0.0000000000
      1541        15  OSM       H6F            20.5363948735        0.0322900713       12.1425008241  MEMB      15              0.0000000000
      1542        15  OSM       H6G            21.1726771908        1.7906991716       12.0806412873  MEMB      15              0.0000000000
      1543        15  OSM       C7F            19.7891556644        1.1695711784       10.4978959136  MEMB      15              0.0000000000
      1544        15  OSM       H7F            19.7433365489        2.2673056900       10.3329701322  MEMB      15              0.0000000000
      1545        15  OSM       H7G            18.8388102649        0.6362966733       10.2816019293  MEMB      15              0.0000000000
      1546        15  OSM       C8F            20.8618104053        0.6560297196        9.5222520645  MEMB      15              0.0000000000
      1547        15  OSM       H8F            21.8873555305        0.8301365184        9.9124632413  MEMB      15              0.0000000000
      1548        15  OSM       H8G            20.7312295123        1.1008771657        8.5126079897  MEMB      15              0.0000000000
      1549        15  OSM       C9F            20.9212417456       -0.8013018237        9.4177803696  MEMB      15              0.0000000000
      1550        15  OSM       H9F            20.9178477549       -1.3398886205       10.3769012257  MEMB      15              0.0000000000
      1551        15  OSM       C10F           20.5009691203       -1.5586973451        8.4580297922  MEMB      15              0.0000000000
      1552        15  OSM       H10F           20.6513641130       -2.6439646654        8.5558880708  MEMB      15              0.0000000000
      1553        15  OSM       C11F           19.8707354292       -1.0860234900        7.1646664288  MEMB      15              0.0000000000
      1554        15  OSM       H11F           19.8718436235        0.0239427037        7.1167621760  MEMB      15              0.0000000000
      1555        15  OSM       H11G           18.8505240608       -1.5253934550        7.1436003731  MEMB      15              0.0000000000
      1556        15  OSM       C12F           20.7100162832       -1.5847241052        5.9361680077  MEMB      15              0.0000000000
      1557        15  OSM       H12F           20.6478587440       -2.6939338807        5.9256240279  MEMB      15              0.0000000000
      1558        15  OSM       H12G           21.7658680204       -1.2696804021        6.0784546048  MEMB      15              0.0000000000
      1559        15  OSM       C13F           20.2558119478       -1.0571073288        4.5966560449  MEMB      15              0.0000000000
      1560        15  OSM       H13F           19.2870459340       -1.4852263244        4.2612047322  MEMB      15              0.0000000000
      1561        15  OSM       H13G           20.9042565331       -1.5653400096        3.8513101930  MEMB      15              0.0000000000
      1562        15  OSM       C14F           20.4281326257        0.4775346072        4.4326681967  MEMB      15              0.0000000000
      1563        15  OSM       H14F           21.2718827906        0.7887281474        5.0850212488  MEMB      15              0.0000000000
      1564        15  OSM       H14G           19.5319547264        1.0593918982        4.7370172346  MEMB      15              0.0000000000
      1565        15  OSM       C15F           20.7866303368        0.8951276360        3.0116567971  MEMB      15              0.0000000000
      1566        15  OSM       H15F           20.7261736393        1.9892716863        2.8285858683  MEMB      15              0.0000000000
      1567        15  OSM       H15G           20.0123547165        0.6150079219        2.2657672412  MEMB      15              0.0000000000
      1568        15  OSM       C16F           22.1407114470        0.3693726067        2.3882024229  MEMB      15              0.0000000000
      1569        15  OSM       H16F           22.1579366818       -0.7227731256        2.1851211934  MEMB      15              0.0000000000
      1570        15  OSM       H16G           22.8908321416        0.7063409531        3.1352583258  MEMB      15              0.0000000000
      1571        15  OSM       C17F           22.5314510490        1.0470044005        0.9385052642  MEMB      15              0.0000000000
      1572        15  OSM       H17F           23.6140121997        0.8626135873        0.7700343900  MEMB      15              0.0000000000
      1573        15  OSM       H17G           22.3913865303        2.1487093792        0.9077007287  MEMB      15              0.0000000000
      1574        15  OSM       C18F           21.6559787036        0.4105741820       -0.2576913957  MEMB      15              0.0000000000
      1575        15  OSM       H18F           21.7273260461       -0.6972410291       -0.2132400354  MEMB      15              0.0000000000
      1576        15  OSM       H18G           21.9908223154        0.7882623519       -1.2474144901  MEMB      15              0.0000000000
      1577        15  OSM       H18H           20.5730906956        0.6166309450       -0.1190731644  MEMB      15              0.0000000000
      1578        16  CHL1      C3              9.5766385577      -14.1054830608       17.3235450000  MEMB      16              0.0000000000
      1579        16  CHL1      H3              9.2618319146      -13.1220017990       16.9136750000  MEMB      16              0.0000000000
      1580        16  CHL1      O3              9.1030094223      -14.1611657392       18.6764550000  MEMB      16              0.0000000000
      1581        16  CHL1      H3'             9.7663892337      -13.6846639697       19.1809150000  MEMB      16              0.0000000000
      1582        16  CHL1      C4              8.7235021457      -15.1162313628       16.5590950000  MEMB      16              0.0000000000
      1583        16  CHL1      H4A             8.8891190125      -16.1775250861       16.8429050000  MEMB      16              0.0000000000
      1584        16  CHL1      H4B             7.6306864993      -14.9687121982       16.6943850000  MEMB      16              0.0000000000
      1585        16  CHL1      C5              9.0481517443      -15.0095696668       15.0986650000  MEMB      16              0.0000000000
      1586        16  CHL1      C6              8.0973340377      -14.8077177019       14.1732250000  MEMB      16              0.0000000000
      1587        16  CHL1      H6              7.0566552408      -14.6727325042       14.5030150000  MEMB      16              0.0000000000
      1588        16  CHL1      C7              8.3801260559      -14.6999001684       12.7210850000  MEMB      16              0.0000000000
      1589        16  CHL1      H7A             7.6225086329      -15.2728599699       12.1448550000  MEMB      16              0.0000000000
      1590        16  CHL1      H7B             8.3276429750      -13.6208385134       12.4618550000  MEMB      16              0.0000000000
      1591        16  CHL1      C8              9.7051679159      -15.1916397708       12.2608150000  MEMB      16              0.0000000000
      1592        16  CHL1      H8              9.7793058199      -16.2931372796       12.3854550000  MEMB      16              0.0000000000
      1593        16  CHL1      C14             9.8951819938      -14.7912434763       10.8059450000  MEMB      16              0.0000000000
      1594        16  CHL1      H14             9.9663498315      -13.6830778402       10.8406150000  MEMB      16              0.0000000000
      1595        16  CHL1      C15             8.9095329688      -15.1871072942        9.7212450000  MEMB      16              0.0000000000
      1596        16  CHL1      H15A            8.5843969401      -16.2488909623        9.6862850000  MEMB      16              0.0000000000
      1597        16  CHL1      H15B            8.0933415199      -14.4335625396        9.7390350000  MEMB      16              0.0000000000
      1598        16  CHL1      C16             9.7273335818      -14.9932694612        8.4294350000  MEMB      16              0.0000000000
      1599        16  CHL1      H16A            9.7036947617      -15.8142323718        7.6812450000  MEMB      16              0.0000000000
      1600        16  CHL1      H16B            9.4657529795      -14.0608926285        7.8848650000  MEMB      16              0.0000000000
      1601        16  CHL1      C17            11.2358376472      -14.8023036442        8.7953350000  MEMB      16              0.0000000000
      1602        16  CHL1      H17            11.3037342882      -13.7000415894        8.9167250000  MEMB      16              0.0000000000
      1603        16  CHL1      C13            11.2816457640      -15.2832153365       10.2444350000  MEMB      16              0.0000000000
      1604        16  CHL1      C18            11.4166862547      -16.8148720017       10.2921050000  MEMB      16              0.0000000000
      1605        16  CHL1      H18A           10.8094456669      -17.3526274794        9.5328950000  MEMB      16              0.0000000000
      1606        16  CHL1      H18B           12.4700750235      -17.0905424852       10.0714450000  MEMB      16              0.0000000000
      1607        16  CHL1      H18C           11.1373754210      -17.2992970105       11.2521250000  MEMB      16              0.0000000000
      1608        16  CHL1      C12            12.3075848039      -14.6388444910       11.1923850000  MEMB      16              0.0000000000
      1609        16  CHL1      H12A           13.2900033014      -15.0027063883       10.8225250000  MEMB      16              0.0000000000
      1610        16  CHL1      H12B           12.4234878338      -13.5351030025       11.1407850000  MEMB      16              0.0000000000
      1611        16  CHL1      C11            12.1345088678      -14.9792405434       12.6651050000  MEMB      16              0.0000000000
      1612        16  CHL1      H11A           12.3127664317      -16.0755696456       12.6898450000  MEMB      16              0.0000000000
      1613        16  CHL1      H11B           12.9923927964      -14.5218837351       13.2028450000  MEMB      16              0.0000000000
      1614        16  CHL1      C9             10.7740280670      -14.6638478910       13.2292950000  MEMB      16              0.0000000000
      1615        16  CHL1      H9             10.5829479343      -13.5791940502       13.0832150000  MEMB      16              0.0000000000
      1616        16  CHL1      C10            10.4814950054      -15.0990322956       14.6595750000  MEMB      16              0.0000000000
      1617        16  CHL1      C19            10.9975853745      -16.5261997616       14.9318150000  MEMB      16              0.0000000000
      1618        16  CHL1      H19A           10.7815200913      -16.9084622975       15.9523550000  MEMB      16              0.0000000000
      1619        16  CHL1      H19B           10.7334459255      -17.3632634800       14.2507250000  MEMB      16              0.0000000000
      1620        16  CHL1      H19C           12.1022965083      -16.5393141161       15.0491450000  MEMB      16              0.0000000000
      1621        16  CHL1      C1             11.2972733759      -14.1846565630       15.6089850000  MEMB      16              0.0000000000
      1622        16  CHL1      H1A            12.3727057459      -14.4619670605       15.5796650000  MEMB      16              0.0000000000
      1623        16  CHL1      H1B            11.1325305889      -13.1256010722       15.3164450000  MEMB      16              0.0000000000
      1624        16  CHL1      C2             11.0447916092      -14.4426131146       17.1329050000  MEMB      16              0.0000000000
      1625        16  CHL1      H2A            11.7237963973      -13.8489509141       17.7816250000  MEMB      16              0.0000000000
      1626        16  CHL1      H2B            11.1382124368      -15.4634157806       17.5613450000  MEMB      16              0.0000000000
      1627        16  CHL1      C20            12.2046416281      -15.2980518325        7.6611850000  MEMB      16              0.0000000000
      1628        16  CHL1      H20            11.9005989438      -16.3416423199        7.4313750000  MEMB      16              0.0000000000
      1629        16  CHL1      C21            13.6836221535      -15.3420393307        7.9697950000  MEMB      16              0.0000000000
      1630        16  CHL1      H21A           14.1357405060      -14.3694781258        7.6799450000  MEMB      16              0.0000000000
      1631        16  CHL1      H21B           14.0915353196      -16.2252311719        7.4332350000  MEMB      16              0.0000000000
      1632        16  CHL1      H21C           14.0009038061      -15.4543082359        9.0285950000  MEMB      16              0.0000000000
      1633        16  CHL1      C22            11.8977532300      -14.6806435077        6.2403350000  MEMB      16              0.0000000000
      1634        16  CHL1      H22A           10.8183566488      -14.8023678120        6.0070650000  MEMB      16              0.0000000000
      1635        16  CHL1      H22B           12.1692283006      -13.6230601458        6.4456250000  MEMB      16              0.0000000000
      1636        16  CHL1      C23            12.7553993075      -15.1891157909        5.0975850000  MEMB      16              0.0000000000
      1637        16  CHL1      H23A           13.8339726970      -15.2148806524        5.3628050000  MEMB      16              0.0000000000
      1638        16  CHL1      H23B           12.4221598946      -16.1427796357        4.6351950000  MEMB      16              0.0000000000
      1639        16  CHL1      C24            12.5700266081      -14.2835196928        3.8118050000  MEMB      16              0.0000000000
      1640        16  CHL1      H24A           11.5227977906      -13.9134756823        3.8386550000  MEMB      16              0.0000000000
      1641        16  CHL1      H24B           13.1831833781      -13.3653303058        3.9354350000  MEMB      16              0.0000000000
      1642        16  CHL1      C25            12.9664822154      -14.9327823538        2.5298250000  MEMB      16              0.0000000000
      1643        16  CHL1      H25            13.8750288557      -15.5582569823        2.6626550000  MEMB      16              0.0000000000
      1644        16  CHL1      C26            11.8568678848      -15.8050215725        1.8895250000  MEMB      16              0.0000000000
      1645        16  CHL1      H26A           12.1032195265      -16.1635438977        0.8672350000  MEMB      16              0.0000000000
      1646        16  CHL1      H26B           11.5984552232      -16.7633031440        2.3887650000  MEMB      16              0.0000000000
      1647        16  CHL1      H26C           10.9104527517      -15.2306805010        1.7958950000  MEMB      16              0.0000000000
      1648        16  CHL1      C27            13.3099444905      -13.8438174147        1.5166950000  MEMB      16              0.0000000000
      1649        16  CHL1      H27A           13.8920673438      -14.3099864483        0.6932050000  MEMB      16              0.0000000000
      1650        16  CHL1      H27B           12.3880341824      -13.5426097393        0.9747750000  MEMB      16              0.0000000000
      1651        16  CHL1      H27C           13.8610770927      -12.9962085322        1.9772650000  MEMB      16              0.0000000000
      1652        17  OSM       N              18.7172988215        5.0228154870       20.6526534048  MEMB      17              0.0000000000
      1653        17  OSM       C15            19.9381737705        5.5232760974       19.9695585723  MEMB      17              0.0000000000
      1654        17  OSM       H15A           20.8126490554        5.3801115052       20.5869698583  MEMB      17              0.0000000000
      1655        17  OSM       H15B           19.8280821651        6.5466219664       19.6423847042  MEMB      17              0.0000000000
      1656        17  OSM       H15C           20.1708839283        4.9222184457       19.1029701379  MEMB      17              0.0000000000
      1657        17  OSM       C14            18.9084632601        3.6421553001       21.2331913173  MEMB      17              0.0000000000
      1658        17  OSM       H14A           19.5908820007        3.7348333188       22.0651261785  MEMB      17              0.0000000000
      1659        17  OSM       H14B           19.2413590661        2.9297155819       20.4929142578  MEMB      17              0.0000000000
      1660        17  OSM       H14C           18.0094566666        3.2073117401       21.6444069377  MEMB      17              0.0000000000
      1661        17  OSM       C13            18.4975669272        5.9547328981       21.9003904254  MEMB      17              0.0000000000
      1662        17  OSM       H13A           18.4958553739        6.9972081552       21.6181804354  MEMB      17              0.0000000000
      1663        17  OSM       H13B           19.3843624683        5.7401047049       22.4782557507  MEMB      17              0.0000000000
      1664        17  OSM       H13C           17.6557010685        5.6823111672       22.5196223762  MEMB      17              0.0000000000
      1665        17  OSM       C12            17.5105269510        5.0989732318       19.7154832507  MEMB      17              0.0000000000
      1666        17  OSM       H12A           17.9013241515        4.5923252847       18.8454341125  MEMB      17              0.0000000000
      1667        17  OSM       H12B           17.3256614051        6.1275913339       19.4431422898  MEMB      17              0.0000000000
      1668        17  OSM       C11            16.1292492281        4.5129850883       20.1589298280  MEMB      17              0.0000000000
      1669        17  OSM       H11A           16.1891995535        3.4036046826       20.1603306567  MEMB      17              0.0000000000
      1670        17  OSM       H11B           15.3411768975        4.7884203388       19.4258551412  MEMB      17              0.0000000000
      1671        17  OSM       P              15.0123776535        6.4300553641       21.5646880226  MEMB      17              0.0000000000
      1672        17  OSM       O13            13.5622299878        6.2474412014       21.9267038034  MEMB      17              0.0000000000
      1673        17  OSM       O14            15.8661784427        7.3898147439       22.3572665575  MEMB      17              0.0000000000
      1674        17  OSM       O11            15.0208432380        6.9427977587       20.0732728303  MEMB      17              0.0000000000
      1675        17  OSM       O12            15.7104837334        4.9735176867       21.4478620050  MEMB      17              0.0000000000
      1676        17  OSM       C1S            15.3744539763        8.3098518673       19.7997279132  MEMB      17              0.0000000000
      1677        17  OSM       H1S            16.4526427349        8.3631239481       20.0623913171  MEMB      17              0.0000000000
      1678        17  OSM       H1T            14.7745803790        9.1160706978       20.2735250883  MEMB      17              0.0000000000
      1679        17  OSM       NF             16.2696002033        9.3088912424       17.7488612111  MEMB      17              0.0000000000
      1680        17  OSM       HNF            15.9509417325       10.1544416236       17.3275411723  MEMB      17              0.0000000000
      1681        17  OSM       C2S            15.2524381786        8.4512862530       18.2599839067  MEMB      17              0.0000000000
      1682        17  OSM       H2S            15.3745498061        7.3992858045       17.9242683879  MEMB      17              0.0000000000
      1683        17  OSM       C3S            13.8986386645        9.0192298704       17.9374060863  MEMB      17              0.0000000000
      1684        17  OSM       H3S            13.8512608212       10.0007734422       18.4557191732  MEMB      17              0.0000000000
      1685        17  OSM       O3             12.8475743660        8.1893213736       18.4926420585  MEMB      17              0.0000000000
      1686        17  OSM       HO3            13.3705958100        7.6404084730       19.0814912059  MEMB      17              0.0000000000
      1687        17  OSM       C4S            13.7383215310        9.2325808327       16.4007758139  MEMB      17              0.0000000000
      1688        17  OSM       H4S            13.7934085162       10.2860383657       16.0890185310  MEMB      17              0.0000000000
      1689        17  OSM       C5S            13.2657074075        8.2971343095       15.5213490421  MEMB      17              0.0000000000
      1690        17  OSM       H5S            12.9314332245        7.3212727767       15.9033897996  MEMB      17              0.0000000000
      1691        17  OSM       C6S            13.0359524859        8.4822254747       14.0559782029  MEMB      17              0.0000000000
      1692        17  OSM       H6S            12.0067853991        8.3313795756       13.6656171070  MEMB      17              0.0000000000
      1693        17  OSM       H6T            13.5948139302        7.6887239632       13.5152840823  MEMB      17              0.0000000000
      1694        17  OSM       C7S            13.4393347918        9.8685343969       13.4744337438  MEMB      17              0.0000000000
      1695        17  OSM       H7S            14.5130843117       10.1441456136       13.5480664676  MEMB      17              0.0000000000
      1696        17  OSM       H7T            13.0255650485       10.6161998432       14.1844422895  MEMB      17              0.0000000000
      1697        17  OSM       C8S            13.0457844496       10.1225453646       11.9957300832  MEMB      17              0.0000000000
      1698        17  OSM       H8S            13.5306118160       11.0945002519       11.7621337673  MEMB      17              0.0000000000
      1699        17  OSM       H8T            11.9695554314       10.3719984747       11.8781498593  MEMB      17              0.0000000000
      1700        17  OSM       C9S            13.5812448483        9.0236924989       10.9691905939  MEMB      17              0.0000000000
      1701        17  OSM       H9S            12.9507222636        8.1241010158       11.1350145494  MEMB      17              0.0000000000
      1702        17  OSM       H9T            14.6072918059        8.6114096087       11.0767594725  MEMB      17              0.0000000000
      1703        17  OSM       C10S           13.3066381606        9.3327812138        9.4754997942  MEMB      17              0.0000000000
      1704        17  OSM       H10S           14.0139015114       10.1149299972        9.1257249323  MEMB      17              0.0000000000
      1705        17  OSM       H10T           12.2713627418        9.7239905589        9.3781269000  MEMB      17              0.0000000000
      1706        17  OSM       C11S           13.5365798226        8.1615111669        8.4807974007  MEMB      17              0.0000000000
      1707        17  OSM       H11S           13.5683258365        8.7048467282        7.5122422177  MEMB      17              0.0000000000
      1708        17  OSM       H11T           12.6712395630        7.4674179924        8.5419679719  MEMB      17              0.0000000000
      1709        17  OSM       C12S           14.8717127187        7.4095649754        8.5383113121  MEMB      17              0.0000000000
      1710        17  OSM       H12S           15.0071882014        7.1108884197        9.5998000554  MEMB      17              0.0000000000
      1711        17  OSM       H12T           15.6710021156        8.1693554641        8.4034933366  MEMB      17              0.0000000000
      1712        17  OSM       C13S           14.8940673104        6.1322495129        7.5817397446  MEMB      17              0.0000000000
      1713        17  OSM       H13S           14.0799630929        5.4434423469        7.8933476818  MEMB      17              0.0000000000
      1714        17  OSM       H13T           15.8199359877        5.5784800053        7.8471209081  MEMB      17              0.0000000000
      1715        17  OSM       C14S           14.8736827086        6.4825192179        6.0776941021  MEMB      17              0.0000000000
      1716        17  OSM       H14S           15.5148807854        7.3898028376        6.0824243744  MEMB      17              0.0000000000
      1717        17  OSM       H14T           13.8283258802        6.7390326071        5.8024645273  MEMB      17              0.0000000000
      1718        17  OSM       C15S           15.4141279820        5.4116644662        4.9525344694  MEMB      17              0.0000000000
      1719        17  OSM       H15S           16.3464474010        4.8813322142        5.2421027629  MEMB      17              0.0000000000
      1720        17  OSM       H15T           15.6237117275        5.9514099848        4.0043429588  MEMB      17              0.0000000000
      1721        17  OSM       C16S           14.4409291550        4.2590909162        4.7239624884  MEMB      17              0.0000000000
      1722        17  OSM       H16S           13.4383788995        4.5515414659        4.3449034521  MEMB      17              0.0000000000
      1723        17  OSM       H16T           14.3507608666        3.6301773364        5.6353677997  MEMB      17              0.0000000000
      1724        17  OSM       C17S           14.9080205062        3.2422442936        3.7628822496  MEMB      17              0.0000000000
      1725        17  OSM       H17S           14.1451332045        2.4487591747        3.9135631880  MEMB      17              0.0000000000
      1726        17  OSM       H17T           15.8874865362        2.9065551378        4.1657222968  MEMB      17              0.0000000000
      1727        17  OSM       C18S           14.9988526880        3.6876606832        2.2786013451  MEMB      17              0.0000000000
      1728        17  OSM       H18S           15.7211601968        4.5180053142        2.1265461852  MEMB      17              0.0000000000
      1729        17  OSM       H18T           14.0508926574        4.1572430766        1.9392115020  MEMB      17              0.0000000000
      1730        17  OSM       H18U           15.3701006446        2.8728214237        1.6209287205  MEMB      17              0.0000000000
      1731        17  OSM       C1F            17.5811480748        8.9716997685       17.6693472605  MEMB      17              0.0000000000
      1732        17  OSM       OF             18.0260160033        7.9419895814       18.1378753121  MEMB      17              0.0000000000
      1733        17  OSM       C2F            18.4352548509        9.9551778867       16.9463811654  MEMB      17              0.0000000000
      1734        17  OSM       H2F            19.4837785231        9.6171210871       17.0900359846  MEMB      17              0.0000000000
      1735        17  OSM       H2G            18.3045223023       11.0313769025       17.1893342612  MEMB      17              0.0000000000
      1736        17  OSM       C3F            18.1643923986        9.8321275527       15.4306036276  MEMB      17              0.0000000000
      1737        17  OSM       H3F            18.8938871004       10.2839343320       14.7248918024  MEMB      17              0.0000000000
      1738        17  OSM       H3G            17.2135014437       10.3260767148       15.1371045489  MEMB      17              0.0000000000
      1739        17  OSM       C4F            18.0769435621        8.3734198067       14.9412726597  MEMB      17              0.0000000000
      1740        17  OSM       H4F            17.1287038048        8.0161733346       15.3968354630  MEMB      17              0.0000000000
      1741        17  OSM       H4G            18.9336277132        7.7079356794       15.1811566337  MEMB      17              0.0000000000
      1742        17  OSM       C5F            17.7303818127        8.1971664803       13.4360570797  MEMB      17              0.0000000000
      1743        17  OSM       H5F            18.7121395836        8.1946119429       12.9159937936  MEMB      17              0.0000000000
      1744        17  OSM       H5G            17.0852782655        9.0374304535       13.1012160113  MEMB      17              0.0000000000
      1745        17  OSM       C6F            17.1018336497        6.8410833140       13.0828908499  MEMB      17              0.0000000000
      1746        17  OSM       H6F            16.9984864753        6.8501369540       11.9767449572  MEMB      17              0.0000000000
      1747        17  OSM       H6G            16.1703095105        6.7019474662       13.6721484584  MEMB      17              0.0000000000
      1748        17  OSM       C7F            17.9673344798        5.5719579076       13.3793522116  MEMB      17              0.0000000000
      1749        17  OSM       H7F            17.4035748075        4.6250734919       13.5204408494  MEMB      17              0.0000000000
      1750        17  OSM       H7G            18.2992784240        5.7295469467       14.4278272013  MEMB      17              0.0000000000
      1751        17  OSM       C8F            19.1782002068        5.3794603277       12.3736328970  MEMB      17              0.0000000000
      1752        17  OSM       H8F            19.9476042154        4.6935938312       12.7882713220  MEMB      17              0.0000000000
      1753        17  OSM       H8G            19.6581931285        6.3345971074       12.0709092273  MEMB      17              0.0000000000
      1754        17  OSM       C9F            18.5041267459        4.6756895542       11.2221012993  MEMB      17              0.0000000000
      1755        17  OSM       H9F            17.6960804774        3.9639773526       11.4468833948  MEMB      17              0.0000000000
      1756        17  OSM       C10F           18.5650783139        4.9676716125        9.9026056186  MEMB      17              0.0000000000
      1757        17  OSM       H10F           17.9765552685        4.3291576710        9.2273723730  MEMB      17              0.0000000000
      1758        17  OSM       C11F           19.3613197366        6.0640838268        9.2273151642  MEMB      17              0.0000000000
      1759        17  OSM       H11F           20.0797968257        5.5981679986        8.5194779277  MEMB      17              0.0000000000
      1760        17  OSM       H11G           19.9759783796        6.6085742005        9.9756774243  MEMB      17              0.0000000000
      1761        17  OSM       C12F           18.4681712025        7.2443391829        8.7122868464  MEMB      17              0.0000000000
      1762        17  OSM       H12F           17.7436839488        7.6236213975        9.4643396647  MEMB      17              0.0000000000
      1763        17  OSM       H12G           17.8819852984        6.7944010772        7.8826706944  MEMB      17              0.0000000000
      1764        17  OSM       C13F           19.3045765363        8.5074471737        8.3227284278  MEMB      17              0.0000000000
      1765        17  OSM       H13F           19.8723315558        8.9214474373        9.1832981716  MEMB      17              0.0000000000
      1766        17  OSM       H13G           18.7017182731        9.3615884505        7.9467960627  MEMB      17              0.0000000000
      1767        17  OSM       C14F           20.3863108956        8.2703516335        7.2833892247  MEMB      17              0.0000000000
      1768        17  OSM       H14F           20.8843254775        7.2863507774        7.4177223416  MEMB      17              0.0000000000
      1769        17  OSM       H14G           21.1555173450        9.0369713955        7.5177742882  MEMB      17              0.0000000000
      1770        17  OSM       C15F           20.0487321054        8.3763179939        5.7512435180  MEMB      17              0.0000000000
      1771        17  OSM       H15F           19.8544818690        7.3612378890        5.3435663657  MEMB      17              0.0000000000
      1772        17  OSM       H15G           20.8945574431        8.7472216960        5.1337232458  MEMB      17              0.0000000000
      1773        17  OSM       C16F           18.7002993243        8.9945510008        5.3340249054  MEMB      17              0.0000000000
      1774        17  OSM       H16F           18.6580394975       10.0666321928        5.6224294331  MEMB      17              0.0000000000
      1775        17  OSM       H16G           17.8362089212        8.4408196562        5.7595249314  MEMB      17              0.0000000000
      1776        17  OSM       C17F           18.5740699576        9.0421372804        3.8316058740  MEMB      17              0.0000000000
      1777        17  OSM       H17F           17.5919067701        9.4979076170        3.5827070997  MEMB      17              0.0000000000
      1778        17  OSM       H17G           18.5142329157        8.0523240260        3.3305958212  MEMB      17              0.0000000000
      1779        17  OSM       C18F           19.6165338666        9.8639480441        3.0845925172  MEMB      17              0.0000000000
      1780        17  OSM       H18F           19.2427946531       10.0221148339        2.0503670605  MEMB      17              0.0000000000
      1781        17  OSM       H18G           20.5311912239        9.2358877518        3.1417162874  MEMB      17              0.0000000000
      1782        17  OSM       H18H           19.7185239180       10.7442880444        3.7546087658  MEMB      17              0.0000000000
      1783        18  SOPE      N               3.4170028302      -18.7334102946       23.5600461732  MEMB      18              0.0000000000
      1784        18  SOPE      HN1             2.6456273869      -18.5572158759       24.2349797526  MEMB      18              0.0000000000
      1785        18  SOPE      HN2             3.2181654986      -19.5092667475       22.8966378150  MEMB      18              0.0000000000
      1786        18  SOPE      HN3             4.2761025307      -19.0304403530       24.0653387816  MEMB      18              0.0000000000
      1787        18  SOPE      C12             3.7188254196      -17.4851593962       22.8070546874  MEMB      18              0.0000000000
      1788        18  SOPE      H12A            4.4713613927      -17.8214381688       22.0621203233  MEMB      18              0.0000000000
      1789        18  SOPE      H12B            4.2355325138      -16.7192960283       23.4241351284  MEMB      18              0.0000000000
      1790        18  SOPE      C11             2.3690228133      -16.8896590523       22.1188683837  MEMB      18              0.0000000000
      1791        18  SOPE      H11A            2.5423959740      -15.9591821391       21.5370819645  MEMB      18              0.0000000000
      1792        18  SOPE      H11B            1.7139603243      -16.6790755156       22.9911462902  MEMB      18              0.0000000000
      1793        18  SOPE      P               2.2251666387      -18.3030716636       19.8602778614  MEMB      18              0.0000000000
      1794        18  SOPE      O13             2.9232389258      -19.6020910616       19.9989659195  MEMB      18              0.0000000000
      1795        18  SOPE      O14             3.0765099593      -17.1734321347       19.3943361551  MEMB      18              0.0000000000
      1796        18  SOPE      O12             1.6644757309      -17.8200920066       21.3210050861  MEMB      18              0.0000000000
      1797        18  SOPE      O11             0.9685122438      -18.4064379894       18.9394457432  MEMB      18              0.0000000000
      1798        18  SOPE      C1             -0.1639394936      -19.1447961061       19.4662931227  MEMB      18              0.0000000000
      1799        18  SOPE      HA             -0.5964168708      -18.5394754880       20.2914422480  MEMB      18              0.0000000000
      1800        18  SOPE      HB              0.0563641793      -20.1960203235       19.7503968197  MEMB      18              0.0000000000
      1801        18  SOPE      C2             -1.2238808594      -19.2377020949       18.3008780514  MEMB      18              0.0000000000
      1802        18  SOPE      HS             -1.9499806243      -20.0759192812       18.3679004231  MEMB      18              0.0000000000
      1803        18  SOPE      O21            -0.5688157358      -19.2430584471       17.0156436068  MEMB      18              0.0000000000
      1804        18  SOPE      C21             0.2943697311      -20.2181346235       16.7071741077  MEMB      18              0.0000000000
      1805        18  SOPE      O22             0.2909024438      -21.3130001237       17.2151006748  MEMB      18              0.0000000000
      1806        18  SOPE      C22             1.2310377912      -19.7245841692       15.6468453959  MEMB      18              0.0000000000
      1807        18  SOPE      H2R             2.1953917592      -19.3356529179       16.0380934105  MEMB      18              0.0000000000
      1808        18  SOPE      H2S             0.8099185666      -18.8591494935       15.0918655086  MEMB      18              0.0000000000
      1809        18  SOPE      C3             -2.1140591526      -17.9299556925       18.3288232553  MEMB      18              0.0000000000
      1810        18  SOPE      HX             -2.7677118139      -17.9539400450       19.2268677756  MEMB      18              0.0000000000
      1811        18  SOPE      HY             -2.7274795481      -18.0030560263       17.4054095301  MEMB      18              0.0000000000
      1812        18  SOPE      O31            -1.2161024399      -16.7567460235       18.4015967307  MEMB      18              0.0000000000
      1813        18  SOPE      C31            -0.9393301198      -16.1963748833       17.1387372485  MEMB      18              0.0000000000
      1814        18  SOPE      O32            -1.3423797649      -16.6399972431       16.1022319450  MEMB      18              0.0000000000
      1815        18  SOPE      C32             0.0828746013      -15.1166894146       17.3372563541  MEMB      18              0.0000000000
      1816        18  SOPE      H2X             0.7697300160      -15.5362245439       18.1031161024  MEMB      18              0.0000000000
      1817        18  SOPE      H2Y            -0.2805972177      -14.2282049921       17.8965454178  MEMB      18              0.0000000000
      1818        18  SOPE      C23             1.6173905936      -20.8501196501       14.6060007469  MEMB      18              0.0000000000
      1819        18  SOPE      H3R             2.1209805951      -21.6864042877       15.1364212464  MEMB      18              0.0000000000
      1820        18  SOPE      H3S             2.3658163346      -20.5610957393       13.8374664243  MEMB      18              0.0000000000
      1821        18  SOPE      C24             0.3629371526      -21.4489360990       13.7531249238  MEMB      18              0.0000000000
      1822        18  SOPE      H4R             0.8487110063      -22.3821515735       13.3961184028  MEMB      18              0.0000000000
      1823        18  SOPE      H4S            -0.3718117013      -21.7067952970       14.5455728633  MEMB      18              0.0000000000
      1824        18  SOPE      C25            -0.1566239565      -20.5205964875       12.6249721858  MEMB      18              0.0000000000
      1825        18  SOPE      H5R            -0.4985571224      -19.5488073811       13.0409393421  MEMB      18              0.0000000000
      1826        18  SOPE      H5S             0.7117276861      -20.1761466038       12.0236070407  MEMB      18              0.0000000000
      1827        18  SOPE      C26            -1.1571263609      -21.1607249646       11.6781236190  MEMB      18              0.0000000000
      1828        18  SOPE      H6R            -2.0332510686      -21.4825441108       12.2807508486  MEMB      18              0.0000000000
      1829        18  SOPE      H6S            -1.5021454727      -20.3934087768       10.9525144961  MEMB      18              0.0000000000
      1830        18  SOPE      C27            -0.6647958983      -22.3869775279       10.8135055495  MEMB      18              0.0000000000
      1831        18  SOPE      H7R            -0.4120814267      -23.2399493635       11.4790092100  MEMB      18              0.0000000000
      1832        18  SOPE      H7S            -1.5149797055      -22.6444263526       10.1462503500  MEMB      18              0.0000000000
      1833        18  SOPE      C28             0.6545634836      -22.0817371432       10.0257602085  MEMB      18              0.0000000000
      1834        18  SOPE      H8R             1.4701932227      -22.0593547837       10.7797952406  MEMB      18              0.0000000000
      1835        18  SOPE      H8S             0.7838208192      -23.0767681462        9.5487636103  MEMB      18              0.0000000000
      1836        18  SOPE      C29             0.7127871470      -20.8468932981        9.1202992271  MEMB      18              0.0000000000
      1837        18  SOPE      H91             0.7245692868      -19.8191806398        9.5123033658  MEMB      18              0.0000000000
      1838        18  SOPE      C210            0.6896163263      -20.9648054401        7.7559873847  MEMB      18              0.0000000000
      1839        18  SOPE      H101            0.9208886237      -20.0510325217        7.1889495048  MEMB      18              0.0000000000
      1840        18  SOPE      C211            0.6144061406      -22.2175337595        6.9805777709  MEMB      18              0.0000000000
      1841        18  SOPE      H11R           -0.4367875686      -22.5633311901        7.0792554905  MEMB      18              0.0000000000
      1842        18  SOPE      H11S            1.1715307580      -23.0684307570        7.4276881337  MEMB      18              0.0000000000
      1843        18  SOPE      C212            1.1905229192      -22.0878656598        5.5679815496  MEMB      18              0.0000000000
      1844        18  SOPE      H12R            0.6568322361      -21.2958828278        5.0003040538  MEMB      18              0.0000000000
      1845        18  SOPE      H12S            1.0598198039      -23.0657350077        5.0570903356  MEMB      18              0.0000000000
      1846        18  SOPE      C213            2.7144896558      -21.5840090824        5.5963231816  MEMB      18              0.0000000000
      1847        18  SOPE      H13R            3.1035530344      -21.5362140014        6.6358746398  MEMB      18              0.0000000000
      1848        18  SOPE      H13S            2.6888878644      -20.5689547939        5.1454017566  MEMB      18              0.0000000000
      1849        18  SOPE      C214            3.6091227591      -22.4006125182        4.5818415932  MEMB      18              0.0000000000
      1850        18  SOPE      H14R            3.2688953819      -22.2080553157        3.5418949106  MEMB      18              0.0000000000
      1851        18  SOPE      H14S            3.4499135471      -23.4638019386        4.8622016432  MEMB      18              0.0000000000
      1852        18  SOPE      C215            5.1188852369      -22.0933006210        4.6242312121  MEMB      18              0.0000000000
      1853        18  SOPE      H15R            5.3873975547      -21.8762060193        5.6802104616  MEMB      18              0.0000000000
      1854        18  SOPE      H15S            5.2084977756      -21.1277784366        4.0819599491  MEMB      18              0.0000000000
      1855        18  SOPE      C216            6.0286262542      -23.2260923707        3.9843333314  MEMB      18              0.0000000000
      1856        18  SOPE      H16R            5.9918242168      -23.9470150997        4.8288663924  MEMB      18              0.0000000000
      1857        18  SOPE      H16S            7.0636390969      -22.8625846878        3.8084590291  MEMB      18              0.0000000000
      1858        18  SOPE      C217            5.4857239998      -23.9959020621        2.7458581422  MEMB      18              0.0000000000
      1859        18  SOPE      H17R            4.5147284379      -24.4693283565        3.0053896061  MEMB      18              0.0000000000
      1860        18  SOPE      H17S            6.2606060658      -24.7729778296        2.5725612082  MEMB      18              0.0000000000
      1861        18  SOPE      C218            5.4076269788      -23.0930783827        1.4828991875  MEMB      18              0.0000000000
      1862        18  SOPE      H18R            6.4030237867      -23.0870989772        0.9894728011  MEMB      18              0.0000000000
      1863        18  SOPE      H18S            5.0379216665      -22.1124137469        1.8515939919  MEMB      18              0.0000000000
      1864        18  SOPE      H18T            4.7185101073      -23.5799123968        0.7601041387  MEMB      18              0.0000000000
      1865        18  SOPE      C33             0.8200154259      -14.7872885772       16.0796092927  MEMB      18              0.0000000000
      1866        18  SOPE      H3X             0.1607143800      -14.2124461987       15.3946278864  MEMB      18              0.0000000000
      1867        18  SOPE      H3Y             1.2325971722      -15.6890049641       15.5786055927  MEMB      18              0.0000000000
      1868        18  SOPE      C34             2.0260189254      -13.8441892637       16.2457518367  MEMB      18              0.0000000000
      1869        18  SOPE      H4X             2.6518624798      -14.0404441128       17.1424820986  MEMB      18              0.0000000000
      1870        18  SOPE      H4Y             1.5440205830      -12.8451505251       16.3083623922  MEMB      18              0.0000000000
      1871        18  SOPE      C35             2.8548667501      -13.6975857566       15.0050540191  MEMB      18              0.0000000000
      1872        18  SOPE      H5X             3.4774034828      -12.7790252806       15.0599602580  MEMB      18              0.0000000000
      1873        18  SOPE      H5Y             2.1157965816      -13.4949334064       14.2006731410  MEMB      18              0.0000000000
      1874        18  SOPE      C36             3.6658679710      -14.9917120351       14.6611129147  MEMB      18              0.0000000000
      1875        18  SOPE      H6X             2.9884158558      -15.8708776706       14.7105882430  MEMB      18              0.0000000000
      1876        18  SOPE      H6Y             4.4640961887      -15.2100057447       15.4023962093  MEMB      18              0.0000000000
      1877        18  SOPE      C37             4.5016720957      -15.1678264861       13.4437896719  MEMB      18              0.0000000000
      1878        18  SOPE      H7X             5.4119417365      -14.5321657627       13.4029809900  MEMB      18              0.0000000000
      1879        18  SOPE      H7Y             4.0636073048      -14.8918532570       12.4608051244  MEMB      18              0.0000000000
      1880        18  SOPE      C38             4.9578247357      -16.6337413809       13.1898147322  MEMB      18              0.0000000000
      1881        18  SOPE      H8X             4.4349630138      -17.2041254057       13.9870594485  MEMB      18              0.0000000000
      1882        18  SOPE      H8Y             6.0216628758      -16.6161154084       13.5095936862  MEMB      18              0.0000000000
      1883        18  SOPE      C39             4.6112698403      -17.1740541980       11.7691627250  MEMB      18              0.0000000000
      1884        18  SOPE      H9X             4.9855966667      -18.2181963637       11.7061738564  MEMB      18              0.0000000000
      1885        18  SOPE      H9Y             5.2014967071      -16.5335927433       11.0794069622  MEMB      18              0.0000000000
      1886        18  SOPE      C310            3.0885996140      -17.0332241750       11.5005957514  MEMB      18              0.0000000000
      1887        18  SOPE      H10X            2.9485915369      -15.9343113867       11.4162792344  MEMB      18              0.0000000000
      1888        18  SOPE      H10Y            2.4860762499      -17.3020211767       12.3944836939  MEMB      18              0.0000000000
      1889        18  SOPE      C311            2.6686589899      -17.8906766801       10.2619946920  MEMB      18              0.0000000000
      1890        18  SOPE      H11X            1.5697480523      -17.7284207962       10.2422737782  MEMB      18              0.0000000000
      1891        18  SOPE      H11Y            2.7164063347      -18.9500537457       10.5932967976  MEMB      18              0.0000000000
      1892        18  SOPE      C312            3.3859611865      -17.6898394574        8.9995761889  MEMB      18              0.0000000000
      1893        18  SOPE      H12X            2.8394664862      -18.3838293073        8.3257495046  MEMB      18              0.0000000000
      1894        18  SOPE      H12Y            4.4481818631      -18.0045880139        9.0828930310  MEMB      18              0.0000000000
      1895        18  SOPE      C313            3.2945559120      -16.2266420910        8.5754904358  MEMB      18              0.0000000000
      1896        18  SOPE      H13X            4.0416521544      -15.8344448624        9.2982288892  MEMB      18              0.0000000000
      1897        18  SOPE      H13Y            2.2898598592      -15.8754156458        8.8941555252  MEMB      18              0.0000000000
      1898        18  SOPE      C314            3.6283581483      -15.9619628998        7.1438624942  MEMB      18              0.0000000000
      1899        18  SOPE      H14X            4.7263984977      -16.0941357124        7.0382260628  MEMB      18              0.0000000000
      1900        18  SOPE      H14Y            3.3696604376      -14.9111696882        6.8924061529  MEMB      18              0.0000000000
      1901        18  SOPE      C315            2.8441091679      -16.7389734189        6.1096235257  MEMB      18              0.0000000000
      1902        18  SOPE      H15X            1.7610554643      -16.5213513304        6.2277594653  MEMB      18              0.0000000000
      1903        18  SOPE      H15Y            2.9920333966      -17.8084715594        6.3715641262  MEMB      18              0.0000000000
      1904        18  SOPE      C316            3.0747924484      -16.4690027784        4.5875845169  MEMB      18              0.0000000000
      1905        18  SOPE      H16X            4.1752953694      -16.3227243161        4.5449584557  MEMB      18              0.0000000000
      1906        18  SOPE      H16Y            2.6659820489      -15.5381167217        4.1396482340  MEMB      18              0.0000000000
      1907        18  SOPE      C317            2.7391349012      -17.7622489594        3.6769937563  MEMB      18              0.0000000000
      1908        18  SOPE      H17X            1.7124368639      -18.1470212834        3.8563329362  MEMB      18              0.0000000000
      1909        18  SOPE      H17Y            3.3581124617      -18.6359643442        3.9733200224  MEMB      18              0.0000000000
      1910        18  SOPE      C318            2.9254926987      -17.5861862330        2.1887570408  MEMB      18              0.0000000000
      1911        18  SOPE      H18X            2.6922826081      -18.5434171000        1.6752940607  MEMB      18              0.0000000000
      1912        18  SOPE      H18Y            3.9482697983      -17.2052460608        1.9810738357  MEMB      18              0.0000000000
      1913        18  SOPE      H18Z            2.1080960625      -16.8851639199        1.9153498014  MEMB      18              0.0000000000
      1914        19  CHL1      C3            -18.1267107314        2.5832187270       17.3132200000  MEMB      19              0.0000000000
      1915        19  CHL1      H3            -17.0706268262        2.3509435774       17.0581300000  MEMB      19              0.0000000000
      1916        19  CHL1      O3            -18.2134368686        2.6969216730       18.6867800000  MEMB      19              0.0000000000
      1917        19  CHL1      H3'           -19.1260060808        2.9659528953       18.8149300000  MEMB      19              0.0000000000
      1918        19  CHL1      C4            -18.6090364750        3.9311730374       16.6741200000  MEMB      19              0.0000000000
      1919        19  CHL1      H4A           -19.6034295838        4.2066103850       17.0859800000  MEMB      19              0.0000000000
      1920        19  CHL1      H4B           -17.9362939459        4.7101093090       17.0924400000  MEMB      19              0.0000000000
      1921        19  CHL1      C5            -18.5752068602        3.7725128882       15.1366800000  MEMB      19              0.0000000000
      1922        19  CHL1      C6            -17.8183034772        4.6766645693       14.4520400000  MEMB      19              0.0000000000
      1923        19  CHL1      H6            -17.2396522680        5.4866545365       14.9201100000  MEMB      19              0.0000000000
      1924        19  CHL1      C7            -17.8515974748        4.6688893055       12.9511700000  MEMB      19              0.0000000000
      1925        19  CHL1      H7A           -18.0481516611        5.7029329375       12.5956100000  MEMB      19              0.0000000000
      1926        19  CHL1      H7B           -16.8438425551        4.4159222696       12.5577700000  MEMB      19              0.0000000000
      1927        19  CHL1      C8            -18.8565575195        3.6571513824       12.2941300000  MEMB      19              0.0000000000
      1928        19  CHL1      H8            -19.8929737834        4.0441803038       12.3960000000  MEMB      19              0.0000000000
      1929        19  CHL1      C14           -18.5177946801        3.4054636194       10.8424500000  MEMB      19              0.0000000000
      1930        19  CHL1      H14           -17.6069489926        2.7697644673       10.8665500000  MEMB      19              0.0000000000
      1931        19  CHL1      C15           -18.2342652230        4.5791250806        9.9094400000  MEMB      19              0.0000000000
      1932        19  CHL1      H15A          -19.0167110802        5.3674324782        9.9353000000  MEMB      19              0.0000000000
      1933        19  CHL1      H15B          -17.3009101411        5.1081458188       10.1980900000  MEMB      19              0.0000000000
      1934        19  CHL1      C16           -18.2427178279        3.8532567047        8.5138200000  MEMB      19              0.0000000000
      1935        19  CHL1      H16A          -18.9367434546        4.4847640792        7.9189800000  MEMB      19              0.0000000000
      1936        19  CHL1      H16B          -17.2005244865        3.8673330811        8.1291600000  MEMB      19              0.0000000000
      1937        19  CHL1      C17           -18.7981050238        2.4096073601        8.7230400000  MEMB      19              0.0000000000
      1938        19  CHL1      H17           -17.9216841242        1.7271796977        8.7453800000  MEMB      19              0.0000000000
      1939        19  CHL1      C13           -19.4039082552        2.4202258560       10.1125600000  MEMB      19              0.0000000000
      1940        19  CHL1      C18           -20.8929800633        2.8398341197       10.1680000000  MEMB      19              0.0000000000
      1941        19  CHL1      H18A          -20.8711982573        3.9214888963        9.9153000000  MEMB      19              0.0000000000
      1942        19  CHL1      H18B          -21.4675262640        2.2147336814        9.4514400000  MEMB      19              0.0000000000
      1943        19  CHL1      H18C          -21.3645167981        2.7781856771       11.1720800000  MEMB      19              0.0000000000
      1944        19  CHL1      C12           -19.3294627281        1.0089507782       10.9026700000  MEMB      19              0.0000000000
      1945        19  CHL1      H12A          -19.9878058921        0.2227191875       10.4751700000  MEMB      19              0.0000000000
      1946        19  CHL1      H12B          -18.2623181554        0.7010381000       10.8761200000  MEMB      19              0.0000000000
      1947        19  CHL1      C11           -19.6416196565        1.2240598029       12.3555200000  MEMB      19              0.0000000000
      1948        19  CHL1      H11A          -20.7283617441        1.4329847929       12.4538500000  MEMB      19              0.0000000000
      1949        19  CHL1      H11B          -19.4735387212        0.2992802133       12.9478600000  MEMB      19              0.0000000000
      1950        19  CHL1      C9            -18.8380732688        2.3439189716       13.1379900000  MEMB      19              0.0000000000
      1951        19  CHL1      H9            -17.7746417321        2.0223284184       13.1335300000  MEMB      19              0.0000000000
      1952        19  CHL1      C10           -19.3017092222        2.5250867798       14.5679800000  MEMB      19              0.0000000000
      1953        19  CHL1      C19           -20.7864309524        2.9168867547       14.7009600000  MEMB      19              0.0000000000
      1954        19  CHL1      H19A          -21.1384993912        3.7464381919       14.0511800000  MEMB      19              0.0000000000
      1955        19  CHL1      H19B          -21.4772394198        2.0648436136       14.5245900000  MEMB      19              0.0000000000
      1956        19  CHL1      H19C          -21.1558964452        3.3304102319       15.6636800000  MEMB      19              0.0000000000
      1957        19  CHL1      C1            -19.0813475016        1.2291255146       15.3620500000  MEMB      19              0.0000000000
      1958        19  CHL1      H1A           -19.7366206959        0.4109627935       14.9939000000  MEMB      19              0.0000000000
      1959        19  CHL1      H1B           -18.1342845944        0.6931932898       15.1380500000  MEMB      19              0.0000000000
      1960        19  CHL1      C2            -19.0346141876        1.4048651546       16.9086800000  MEMB      19              0.0000000000
      1961        19  CHL1      H2A           -18.6842082334        0.4353927617       17.3229800000  MEMB      19              0.0000000000
      1962        19  CHL1      H2B           -20.0692399897        1.6828045387       17.2029900000  MEMB      19              0.0000000000
      1963        19  CHL1      C20           -19.6243600306        1.9385055136        7.5046700000  MEMB      19              0.0000000000
      1964        19  CHL1      H20           -20.5481025372        2.5556739329        7.4939200000  MEMB      19              0.0000000000
      1965        19  CHL1      C21           -20.1801763299        0.4858863602        7.7025300000  MEMB      19              0.0000000000
      1966        19  CHL1      H21A          -20.4975654665        0.0607724148        6.7263800000  MEMB      19              0.0000000000
      1967        19  CHL1      H21B          -21.0273632352        0.4286568744        8.4189900000  MEMB      19              0.0000000000
      1968        19  CHL1      H21C          -19.3892006047       -0.2471661023        7.9695800000  MEMB      19              0.0000000000
      1969        19  CHL1      C22           -18.8663634356        2.0167741404        6.1838100000  MEMB      19              0.0000000000
      1970        19  CHL1      H22A          -18.2606602898        2.9477463428        6.2108600000  MEMB      19              0.0000000000
      1971        19  CHL1      H22B          -18.1512870161        1.1667767837        6.1615900000  MEMB      19              0.0000000000
      1972        19  CHL1      C23           -19.7064744436        1.8998179087        4.8806600000  MEMB      19              0.0000000000
      1973        19  CHL1      H23A          -20.5030132768        1.1406139892        5.0338600000  MEMB      19              0.0000000000
      1974        19  CHL1      H23B          -20.1386076236        2.8908440984        4.6248300000  MEMB      19              0.0000000000
      1975        19  CHL1      C24           -18.8220960519        1.3990787801        3.6847500000  MEMB      19              0.0000000000
      1976        19  CHL1      H24A          -17.8918461149        2.0042495503        3.6324500000  MEMB      19              0.0000000000
      1977        19  CHL1      H24B          -18.5710989600        0.3565636587        3.9754100000  MEMB      19              0.0000000000
      1978        19  CHL1      C25           -19.5065102982        1.3815591356        2.2993400000  MEMB      19              0.0000000000
      1979        19  CHL1      H25           -20.5215425981        0.9707853301        2.4871900000  MEMB      19              0.0000000000
      1980        19  CHL1      C26           -19.7472926993        2.8355167879        1.7628700000  MEMB      19              0.0000000000
      1981        19  CHL1      H26A          -18.8116548583        3.4345129818        1.7740600000  MEMB      19              0.0000000000
      1982        19  CHL1      H26B          -20.3069697698        2.8037568001        0.8036600000  MEMB      19              0.0000000000
      1983        19  CHL1      H26C          -20.4865680764        3.2246453092        2.4952400000  MEMB      19              0.0000000000
      1984        19  CHL1      C27           -18.6784117576        0.6258309246        1.2888500000  MEMB      19              0.0000000000
      1985        19  CHL1      H27A          -19.1660954482        0.6520468202        0.2909500000  MEMB      19              0.0000000000
      1986        19  CHL1      H27B          -17.6638766950        1.0617582836        1.1663700000  MEMB      19              0.0000000000
      1987        19  CHL1      H27C          -18.3597175088       -0.3963978209        1.5851400000  MEMB      19              0.0000000000
      1988        20  SAPE      N             -15.0681036717       -6.4990536203       21.1923101167  MEMB      20              0.0000000000
      1989        20  SAPE      HN1           -14.2572663677       -6.6724306578       21.8200709216  MEMB      20              0.0000000000
      1990        20  SAPE      HN2           -15.2280497157       -7.2731268379       20.5164196196  MEMB      20              0.0000000000
      1991        20  SAPE      HN3           -15.0571580349       -5.5647549240       20.7356197132  MEMB      20              0.0000000000
      1992        20  SAPE      C12           -16.4080815426       -6.3780156520       21.8682336363  MEMB      20              0.0000000000
      1993        20  SAPE      H12A          -16.4806555139       -5.3704670515       22.3307269180  MEMB      20              0.0000000000
      1994        20  SAPE      H12B          -16.5867961855       -7.2614442787       22.5177996395  MEMB      20              0.0000000000
      1995        20  SAPE      C11           -17.4866563642       -6.5248381901       20.7382317822  MEMB      20              0.0000000000
      1996        20  SAPE      H11A          -18.4948089084       -6.5213759638       21.2050695812  MEMB      20              0.0000000000
      1997        20  SAPE      H11B          -17.3891744217       -7.5812899618       20.4084922189  MEMB      20              0.0000000000
      1998        20  SAPE      P             -18.4261655037       -4.6263280477       19.2736017685  MEMB      20              0.0000000000
      1999        20  SAPE      O13           -19.4943187325       -5.1320361381       18.3723715947  MEMB      20              0.0000000000
      2000        20  SAPE      O14           -18.7799948187       -4.0525620067       20.5762959067  MEMB      20              0.0000000000
      2001        20  SAPE      O12           -17.3208732488       -5.6949002379       19.5733809686  MEMB      20              0.0000000000
      2002        20  SAPE      O11           -17.7118749171       -3.5826121067       18.4055741887  MEMB      20              0.0000000000
      2003        20  SAPE      C1            -16.6379683699       -3.8304340745       17.5875106627  MEMB      20              0.0000000000
      2004        20  SAPE      HA            -15.7807092563       -3.3810437236       18.1329242462  MEMB      20              0.0000000000
      2005        20  SAPE      HB            -16.3936625285       -4.8653679429       17.2657224173  MEMB      20              0.0000000000
      2006        20  SAPE      C2            -16.8128336649       -3.0777704834       16.2001897477  MEMB      20              0.0000000000
      2007        20  SAPE      HS            -16.7898600690       -1.9783659961       16.3586286366  MEMB      20              0.0000000000
      2008        20  SAPE      O21           -18.0071182390       -3.5978840638       15.6472841224  MEMB      20              0.0000000000
      2009        20  SAPE      C21           -18.9976833062       -2.7889755082       15.4572508742  MEMB      20              0.0000000000
      2010        20  SAPE      O22           -19.1491726170       -1.6572005624       15.9468399912  MEMB      20              0.0000000000
      2011        20  SAPE      C22           -19.9544890746       -3.5555116754       14.5306040889  MEMB      20              0.0000000000
      2012        20  SAPE      H2R           -19.5851037162       -3.6506784649       13.4871395771  MEMB      20              0.0000000000
      2013        20  SAPE      H2S           -20.0231682344       -4.5897509284       14.9305460680  MEMB      20              0.0000000000
      2014        20  SAPE      C3            -15.5910928091       -3.3663027382       15.3295793031  MEMB      20              0.0000000000
      2015        20  SAPE      HX            -14.7539372511       -3.4245231959       16.0576604127  MEMB      20              0.0000000000
      2016        20  SAPE      HY            -15.5343537433       -2.5261364665       14.6048569357  MEMB      20              0.0000000000
      2017        20  SAPE      O31           -15.8099549561       -4.6796468531       14.7282861595  MEMB      20              0.0000000000
      2018        20  SAPE      C31           -14.7095460314       -5.2261065316       14.1767483644  MEMB      20              0.0000000000
      2019        20  SAPE      O32           -13.5739249116       -4.8179279282       14.4067274606  MEMB      20              0.0000000000
      2020        20  SAPE      C32           -15.1342278603       -6.2857714739       13.1654523581  MEMB      20              0.0000000000
      2021        20  SAPE      H2X           -15.3078981563       -7.1813358871       13.7995849040  MEMB      20              0.0000000000
      2022        20  SAPE      H2Y           -14.3051909206       -6.5164159360       12.4627281146  MEMB      20              0.0000000000
      2023        20  SAPE      C23           -21.3666262010       -2.8875094719       14.4818235988  MEMB      20              0.0000000000
      2024        20  SAPE      H3R           -21.2298732000       -2.1853653870       13.6317569025  MEMB      20              0.0000000000
      2025        20  SAPE      H3S           -21.5612635446       -2.1665165897       15.3043845751  MEMB      20              0.0000000000
      2026        20  SAPE      C24           -22.4752839979       -3.8477606787       14.1516001480  MEMB      20              0.0000000000
      2027        20  SAPE      H4R           -23.2361770444       -3.1643680962       13.7176216122  MEMB      20              0.0000000000
      2028        20  SAPE      H4S           -22.8304444817       -4.2102981838       15.1399063534  MEMB      20              0.0000000000
      2029        20  SAPE      C25           -22.2264203979       -5.0118885859       13.1739298596  MEMB      20              0.0000000000
      2030        20  SAPE      H5R           -22.3366055445       -6.0247352416       13.5886596567  MEMB      20              0.0000000000
      2031        20  SAPE      C26           -21.7848295648       -4.9901717183       11.9095124045  MEMB      20              0.0000000000
      2032        20  SAPE      H6R           -21.8306580498       -5.9525436285       11.3787203234  MEMB      20              0.0000000000
      2033        20  SAPE      C27           -21.4091414671       -3.7845225624       11.1081757909  MEMB      20              0.0000000000
      2034        20  SAPE      H7R           -20.3136345511       -3.6026174304       11.0750697293  MEMB      20              0.0000000000
      2035        20  SAPE      H7S           -21.9848692452       -2.8933792697       11.4379070512  MEMB      20              0.0000000000
      2036        20  SAPE      C28           -21.8979732018       -3.9337488639        9.7329635838  MEMB      20              0.0000000000
      2037        20  SAPE      H8R           -22.8667249290       -4.4542494434        9.7084787658  MEMB      20              0.0000000000
      2038        20  SAPE      C29           -21.2237808356       -3.5328350226        8.6751925955  MEMB      20              0.0000000000
      2039        20  SAPE      H9R           -21.7289474089       -3.5472699278        7.6981566330  MEMB      20              0.0000000000
      2040        20  SAPE      C210          -19.9311552226       -2.8780634907        8.6044257293  MEMB      20              0.0000000000
      2041        20  SAPE      H10R          -19.1623204253       -3.4829979308        8.0778625521  MEMB      20              0.0000000000
      2042        20  SAPE      H10S          -19.5181289768       -2.6469471135        9.6095703938  MEMB      20              0.0000000000
      2043        20  SAPE      C211          -19.9962620954       -1.6468485827        7.7987571685  MEMB      20              0.0000000000
      2044        20  SAPE      H11R          -19.8914531060       -0.7053756649        8.3579025909  MEMB      20              0.0000000000
      2045        20  SAPE      C212          -20.0318037572       -1.4906994906        6.4531532426  MEMB      20              0.0000000000
      2046        20  SAPE      H12R          -19.8791872384       -0.5210114071        5.9567532169  MEMB      20              0.0000000000
      2047        20  SAPE      C213          -20.0495285858       -2.6512258370        5.4865893971  MEMB      20              0.0000000000
      2048        20  SAPE      H13R          -19.8995119326       -3.6224290564        6.0048362254  MEMB      20              0.0000000000
      2049        20  SAPE      H13S          -19.1270905161       -2.6712495276        4.8676959757  MEMB      20              0.0000000000
      2050        20  SAPE      C214          -21.3126296015       -2.8321959289        4.7332498167  MEMB      20              0.0000000000
      2051        20  SAPE      H14R          -22.1791247564       -2.5639956112        5.3555472762  MEMB      20              0.0000000000
      2052        20  SAPE      C215          -21.4633334812       -3.3571549985        3.4635386853  MEMB      20              0.0000000000
      2053        20  SAPE      H15R          -22.4748318786       -3.5380529958        3.0709238781  MEMB      20              0.0000000000
      2054        20  SAPE      C216          -20.3747921515       -3.9136844641        2.5782420210  MEMB      20              0.0000000000
      2055        20  SAPE      H16R          -20.5925216850       -4.9058219266        2.1281543735  MEMB      20              0.0000000000
      2056        20  SAPE      H16S          -19.4056866078       -4.0528372330        3.1033995560  MEMB      20              0.0000000000
      2057        20  SAPE      C217          -20.1028467722       -2.9890056080        1.3149449082  MEMB      20              0.0000000000
      2058        20  SAPE      H17R          -19.9356883062       -1.9593243032        1.6972201721  MEMB      20              0.0000000000
      2059        20  SAPE      H17S          -20.8681613429       -3.0779850506        0.5145088664  MEMB      20              0.0000000000
      2060        20  SAPE      C218          -18.8031518701       -3.4685389514        0.6224468731  MEMB      20              0.0000000000
      2061        20  SAPE      H18R          -18.9838867371       -4.5196015162        0.3111210051  MEMB      20              0.0000000000
      2062        20  SAPE      H18S          -17.8907439682       -3.3858093532        1.2509290279  MEMB      20              0.0000000000
      2063        20  SAPE      C219          -18.3667257769       -2.5513477857       -0.5693779336  MEMB      20              0.0000000000
      2064        20  SAPE      H19R          -17.2937506803       -2.8126372397       -0.6909237835  MEMB      20              0.0000000000
      2065        20  SAPE      H19S          -18.4312209030       -1.5341886801       -0.1271687088  MEMB      20              0.0000000000
      2066        20  SAPE      C220          -19.1423855894       -2.8042188402       -1.8055774688  MEMB      20              0.0000000000
      2067        20  SAPE      H20R          -18.6818864201       -2.1743663991       -2.5964931357  MEMB      20              0.0000000000
      2068        20  SAPE      H20S          -20.2110454531       -2.5905888801       -1.5895938167  MEMB      20              0.0000000000
      2069        20  SAPE      H20T          -18.8591541844       -3.8367550484       -2.1021759746  MEMB      20              0.0000000000
      2070        20  SAPE      C33           -16.4092797559       -5.9140859740       12.3202032993  MEMB      20              0.0000000000
      2071        20  SAPE      H3X           -15.8481186094       -5.1894933512       11.6922028009  MEMB      20              0.0000000000
      2072        20  SAPE      H3Y           -17.2131105076       -5.3347347776       12.8227264448  MEMB      20              0.0000000000
      2073        20  SAPE      C34           -16.8724892632       -7.1138426977       11.6199690857  MEMB      20              0.0000000000
      2074        20  SAPE      H4X           -17.4752574924       -7.6086506810       12.4112696220  MEMB      20              0.0000000000
      2075        20  SAPE      H4Y           -16.0901371903       -7.7550902265       11.1605700618  MEMB      20              0.0000000000
      2076        20  SAPE      C35           -17.8901241154       -6.7517625232       10.5425550203  MEMB      20              0.0000000000
      2077        20  SAPE      H5X           -18.6712635537       -6.0728261592       10.9465198598  MEMB      20              0.0000000000
      2078        20  SAPE      H5Y           -18.1920588326       -7.7482632966       10.1550724750  MEMB      20              0.0000000000
      2079        20  SAPE      C36           -17.1913975955       -6.0582093923        9.4134191331  MEMB      20              0.0000000000
      2080        20  SAPE      H6X           -16.1670522490       -6.4620499852        9.2652611992  MEMB      20              0.0000000000
      2081        20  SAPE      H6Y           -17.1631583311       -4.9560224211        9.5501935535  MEMB      20              0.0000000000
      2082        20  SAPE      C37           -17.8839080137       -6.3713406501        8.0599713612  MEMB      20              0.0000000000
      2083        20  SAPE      H7X           -18.8676849524       -5.8579856462        8.0054692940  MEMB      20              0.0000000000
      2084        20  SAPE      H7Y           -18.0303565016       -7.4622825665        7.9092417553  MEMB      20              0.0000000000
      2085        20  SAPE      C38           -17.1956626498       -5.7732369078        6.8206421635  MEMB      20              0.0000000000
      2086        20  SAPE      H8X           -16.1246092660       -5.9951148520        7.0154136036  MEMB      20              0.0000000000
      2087        20  SAPE      H8Y           -17.2404403022       -4.6634867243        6.7928827099  MEMB      20              0.0000000000
      2088        20  SAPE      C39           -17.6829798044       -6.3128645472        5.5343371206  MEMB      20              0.0000000000
      2089        20  SAPE      H9X           -18.7753681752       -6.1104070603        5.5387695057  MEMB      20              0.0000000000
      2090        20  SAPE      H9Y           -17.5852095272       -7.4174860356        5.4667102402  MEMB      20              0.0000000000
      2091        20  SAPE      C310          -17.1788789473       -5.5592576914        4.2206763777  MEMB      20              0.0000000000
      2092        20  SAPE      H10X          -17.2838513018       -4.4581167492        4.1167990878  MEMB      20              0.0000000000
      2093        20  SAPE      H10Y          -17.6945280542       -5.9819666694        3.3319999062  MEMB      20              0.0000000000
      2094        20  SAPE      C311          -15.6560424669       -5.7963495899        4.0480376271  MEMB      20              0.0000000000
      2095        20  SAPE      H11X          -15.5470120840       -6.8680621201        3.7762557679  MEMB      20              0.0000000000
      2096        20  SAPE      H11Y          -15.1380733909       -5.6227339296        5.0154504316  MEMB      20              0.0000000000
      2097        20  SAPE      C312          -14.9521034035       -4.9184597547        2.9578577264  MEMB      20              0.0000000000
      2098        20  SAPE      H12X          -14.6664766019       -3.8803602487        3.2318810464  MEMB      20              0.0000000000
      2099        20  SAPE      H12Y          -15.6685320180       -4.8524368442        2.1112813601  MEMB      20              0.0000000000
      2100        20  SAPE      C313          -13.6116807045       -5.6427786756        2.4867664280  MEMB      20              0.0000000000
      2101        20  SAPE      H13X          -12.9881372210       -5.8163232409        3.3897597150  MEMB      20              0.0000000000
      2102        20  SAPE      H13Y          -13.0079166317       -4.9503681456        1.8619810118  MEMB      20              0.0000000000
      2103        20  SAPE      C314          -13.8631391809       -7.0079287342        1.8587222275  MEMB      20              0.0000000000
      2104        20  SAPE      H14X          -14.2621636975       -7.7012693376        2.6296809528  MEMB      20              0.0000000000
      2105        20  SAPE      H14Y          -12.8109124858       -7.3074248520        1.6652235152  MEMB      20              0.0000000000
      2106        20  SAPE      C315          -14.5592424535       -6.8902033693        0.5515382069  MEMB      20              0.0000000000
      2107        20  SAPE      H15X          -14.3298208586       -5.9329776991        0.0363615857  MEMB      20              0.0000000000
      2108        20  SAPE      H15Y          -15.6603019285       -6.8287194003        0.6864784350  MEMB      20              0.0000000000
      2109        20  SAPE      C316          -14.1936887251       -8.0404854528       -0.4198287456  MEMB      20              0.0000000000
      2110        20  SAPE      H16X          -14.5782577876       -8.9836699423        0.0238277309  MEMB      20              0.0000000000
      2111        20  SAPE      H16Y          -13.0888629515       -8.1512433962       -0.3822274110  MEMB      20              0.0000000000
      2112        20  SAPE      C317          -14.8115282870       -8.0977916095       -1.8511813879  MEMB      20              0.0000000000
      2113        20  SAPE      H17X          -14.6796273997       -9.0884965327       -2.3363893500  MEMB      20              0.0000000000
      2114        20  SAPE      H17Y          -14.3292690899       -7.2902091059       -2.4424161400  MEMB      20              0.0000000000
      2115        20  SAPE      C318          -16.2951097571       -7.8149056626       -1.7993385076  MEMB      20              0.0000000000
      2116        20  SAPE      H18X          -16.4707198306       -6.7191594977       -1.7462134189  MEMB      20              0.0000000000
      2117        20  SAPE      H18Y          -16.8181218004       -8.2536407006       -0.9228157808  MEMB      20              0.0000000000
      2118        20  SAPE      H18Z          -16.6853396280       -8.0921528808       -2.8019225084  MEMB      20              0.0000000000
      2119        21  CHL1      C3             -6.0555588123       17.5727694468       17.3616700000  MEMB      21              0.0000000000
      2120        21  CHL1      H3             -6.7208633037       16.7049643979       17.5581500000  MEMB      21              0.0000000000
      2121        21  CHL1      O3             -5.8314955677       18.0741513532       18.6383300000  MEMB      21              0.0000000000
      2122        21  CHL1      H3'            -6.5734577287       18.6632518418       18.7934600000  MEMB      21              0.0000000000
      2123        21  CHL1      C4             -4.6952404546       17.1055214037       16.7761300000  MEMB      21              0.0000000000
      2124        21  CHL1      H4A            -3.9455984681       17.9239073722       16.7250500000  MEMB      21              0.0000000000
      2125        21  CHL1      H4B            -4.2327730057       16.3823476111       17.4814500000  MEMB      21              0.0000000000
      2126        21  CHL1      C5             -4.6719024462       16.5345489951       15.4261600000  MEMB      21              0.0000000000
      2127        21  CHL1      C6             -4.1929971319       15.3246867665       15.0265100000  MEMB      21              0.0000000000
      2128        21  CHL1      H6             -3.9297665833       14.5172479720       15.7256200000  MEMB      21              0.0000000000
      2129        21  CHL1      C7             -4.0785111728       14.8211118917       13.5822300000  MEMB      21              0.0000000000
      2130        21  CHL1      H7A            -3.1882957192       14.2084434219       13.3244300000  MEMB      21              0.0000000000
      2131        21  CHL1      H7B            -4.9697090127       14.1610226524       13.5161800000  MEMB      21              0.0000000000
      2132        21  CHL1      C8             -4.3485653332       15.9526461610       12.6177000000  MEMB      21              0.0000000000
      2133        21  CHL1      H8             -3.4782950134       16.6248215454       12.4591400000  MEMB      21              0.0000000000
      2134        21  CHL1      C14            -4.6302848932       15.2830961013       11.2831800000  MEMB      21              0.0000000000
      2135        21  CHL1      H14            -5.5767042683       14.7114701236       11.3919600000  MEMB      21              0.0000000000
      2136        21  CHL1      C15            -3.5513326657       14.3902775132       10.6863400000  MEMB      21              0.0000000000
      2137        21  CHL1      H15A           -2.6724815131       15.0694941625       10.6615700000  MEMB      21              0.0000000000
      2138        21  CHL1      H15B           -3.3734748101       13.4819612313       11.3008600000  MEMB      21              0.0000000000
      2139        21  CHL1      C16            -3.9931527791       14.1573572822        9.2306300000  MEMB      21              0.0000000000
      2140        21  CHL1      H16A           -3.1194103353       14.3294647109        8.5663400000  MEMB      21              0.0000000000
      2141        21  CHL1      H16B           -4.2780121553       13.0873614609        9.1395600000  MEMB      21              0.0000000000
      2142        21  CHL1      C17            -5.1246011041       15.2258820903        8.9669800000  MEMB      21              0.0000000000
      2143        21  CHL1      H17            -6.0847320943       14.7034319330        9.1657700000  MEMB      21              0.0000000000
      2144        21  CHL1      C13            -5.0565645684       16.2591591275       10.0795100000  MEMB      21              0.0000000000
      2145        21  CHL1      C18            -4.0333959252       17.3922663394        9.7116400000  MEMB      21              0.0000000000
      2146        21  CHL1      H18A           -4.3962690368       18.1884907938        9.0270600000  MEMB      21              0.0000000000
      2147        21  CHL1      H18B           -3.6078524388       17.8445369212       10.6328800000  MEMB      21              0.0000000000
      2148        21  CHL1      H18C           -3.2266354921       16.8752145922        9.1494000000  MEMB      21              0.0000000000
      2149        21  CHL1      C12            -6.2874163497       16.9994424156       10.5178400000  MEMB      21              0.0000000000
      2150        21  CHL1      H12A           -6.7565090227       17.6872718111        9.7821900000  MEMB      21              0.0000000000
      2151        21  CHL1      H12B           -7.0237249189       16.1871303242       10.6976100000  MEMB      21              0.0000000000
      2152        21  CHL1      C11            -5.9588340588       17.8101886907       11.8381200000  MEMB      21              0.0000000000
      2153        21  CHL1      H11A           -5.2556160089       18.6538324838       11.6705800000  MEMB      21              0.0000000000
      2154        21  CHL1      H11B           -6.9108306749       18.2117219717       12.2465100000  MEMB      21              0.0000000000
      2155        21  CHL1      C9             -5.4725062881       16.8404760207       13.0368300000  MEMB      21              0.0000000000
      2156        21  CHL1      H9             -6.3208314670       16.1854990546       13.3295100000  MEMB      21              0.0000000000
      2157        21  CHL1      C10            -5.1851232681       17.5011649732       14.3553500000  MEMB      21              0.0000000000
      2158        21  CHL1      C19            -4.0654561295       18.5698689205       14.2134600000  MEMB      21              0.0000000000
      2159        21  CHL1      H19A           -4.0400320915       19.2262130418       15.1094900000  MEMB      21              0.0000000000
      2160        21  CHL1      H19B           -3.1174071436       18.0199695476       14.0313700000  MEMB      21              0.0000000000
      2161        21  CHL1      H19C           -4.1476206019       19.2391320567       13.3304800000  MEMB      21              0.0000000000
      2162        21  CHL1      C1             -6.5119210354       18.0814602800       14.9940400000  MEMB      21              0.0000000000
      2163        21  CHL1      H1A            -6.8150169914       18.8860738135       14.2904400000  MEMB      21              0.0000000000
      2164        21  CHL1      H1B            -7.3330095000       17.3437966088       14.8675600000  MEMB      21              0.0000000000
      2165        21  CHL1      C2             -6.5796515678       18.6129536623       16.4349600000  MEMB      21              0.0000000000
      2166        21  CHL1      H2A            -7.5943846122       18.9220852341       16.7652200000  MEMB      21              0.0000000000
      2167        21  CHL1      H2B            -5.8101698477       19.4032768552       16.5677000000  MEMB      21              0.0000000000
      2168        21  CHL1      C20            -5.0974818055       15.6546388557        7.5073000000  MEMB      21              0.0000000000
      2169        21  CHL1      H20            -4.1676351481       16.2275277767        7.3035600000  MEMB      21              0.0000000000
      2170        21  CHL1      C21            -6.2388320677       16.6108767450        7.1449600000  MEMB      21              0.0000000000
      2171        21  CHL1      H21A           -7.2158073418       16.0968152767        7.0201700000  MEMB      21              0.0000000000
      2172        21  CHL1      H21B           -6.0730783625       17.0542136540        6.1398300000  MEMB      21              0.0000000000
      2173        21  CHL1      H21C           -6.5113306531       17.4742233886        7.7889300000  MEMB      21              0.0000000000
      2174        21  CHL1      C22            -4.8043463969       14.4706786464        6.4826100000  MEMB      21              0.0000000000
      2175        21  CHL1      H22A           -3.7372237162       14.1619181580        6.4980700000  MEMB      21              0.0000000000
      2176        21  CHL1      H22B           -5.4581883984       13.6170109000        6.7620100000  MEMB      21              0.0000000000
      2177        21  CHL1      C23            -5.0735504126       14.8236143862        4.9741700000  MEMB      21              0.0000000000
      2178        21  CHL1      H23A           -6.1520578787       14.5817429994        4.8616900000  MEMB      21              0.0000000000
      2179        21  CHL1      H23B           -4.8987889357       15.8706310196        4.6462200000  MEMB      21              0.0000000000
      2180        21  CHL1      C24            -4.2071297090       13.9213417218        3.9560200000  MEMB      21              0.0000000000
      2181        21  CHL1      H24A           -3.1414782169       13.8844647042        4.2680000000  MEMB      21              0.0000000000
      2182        21  CHL1      H24B           -4.5543741795       12.8660175337        3.9602000000  MEMB      21              0.0000000000
      2183        21  CHL1      C25            -4.0905583483       14.4378132566        2.4709400000  MEMB      21              0.0000000000
      2184        21  CHL1      H25            -3.7875927001       15.4959677978        2.3198500000  MEMB      21              0.0000000000
      2185        21  CHL1      C26            -2.9511622863       13.6113306721        1.8054000000  MEMB      21              0.0000000000
      2186        21  CHL1      H26A           -1.9670082454       13.8461964502        2.2643000000  MEMB      21              0.0000000000
      2187        21  CHL1      H26B           -3.1380054001       12.5166669606        1.8387000000  MEMB      21              0.0000000000
      2188        21  CHL1      H26C           -2.8918241952       13.8254364334        0.7168400000  MEMB      21              0.0000000000
      2189        21  CHL1      C27            -5.3803868883       14.1239160571        1.7950700000  MEMB      21              0.0000000000
      2190        21  CHL1      H27A           -5.3004355314       14.1378646426        0.6870400000  MEMB      21              0.0000000000
      2191        21  CHL1      H27B           -5.6761916595       13.1062504223        2.1285200000  MEMB      21              0.0000000000
      2192        21  CHL1      H27C           -6.1852878122       14.7735565913        2.2005600000  MEMB      21              0.0000000000
      2193        22  SOPE      N             -15.8347733851       13.2248018380       22.4152647100  MEMB      22              0.0000000000
      2194        22  SOPE      HN1           -16.2493217317       12.6818442498       23.1994500625  MEMB      22              0.0000000000
      2195        22  SOPE      HN2           -15.2388594200       13.9076563571       22.9253590795  MEMB      22              0.0000000000
      2196        22  SOPE      HN3           -16.6375347740       13.7110107024       21.9671855273  MEMB      22              0.0000000000
      2197        22  SOPE      C12           -14.9645238218       12.3809721155       21.5996851626  MEMB      22              0.0000000000
      2198        22  SOPE      H12A          -15.7039187018       11.7440015246       21.0687571197  MEMB      22              0.0000000000
      2199        22  SOPE      H12B          -14.4490210496       11.6739224875       22.2842717354  MEMB      22              0.0000000000
      2200        22  SOPE      C11           -13.9914131612       13.1463498090       20.7298034115  MEMB      22              0.0000000000
      2201        22  SOPE      H11A          -14.5758810725       13.9181982561       20.1848554853  MEMB      22              0.0000000000
      2202        22  SOPE      H11B          -13.5096712933       12.6115496526       19.8834969958  MEMB      22              0.0000000000
      2203        22  SOPE      P             -11.7373865505       14.4632150180       20.6674481497  MEMB      22              0.0000000000
      2204        22  SOPE      O13           -11.1674207206       13.4281381834       19.7822340892  MEMB      22              0.0000000000
      2205        22  SOPE      O14           -10.7957561828       15.2372474189       21.5512779823  MEMB      22              0.0000000000
      2206        22  SOPE      O12           -12.9517249537       13.8019163569       21.5334749110  MEMB      22              0.0000000000
      2207        22  SOPE      O11           -12.4242924049       15.5422968752       19.7208115907  MEMB      22              0.0000000000
      2208        22  SOPE      C1            -11.8367800307       15.9989650564       18.5354173247  MEMB      22              0.0000000000
      2209        22  SOPE      HA            -10.7734059886       15.6814904957       18.4828191608  MEMB      22              0.0000000000
      2210        22  SOPE      HB            -11.7711200431       17.1080095288       18.5299043966  MEMB      22              0.0000000000
      2211        22  SOPE      C2            -12.5321490576       15.5029357240       17.2982038335  MEMB      22              0.0000000000
      2212        22  SOPE      HS            -13.5445094713       15.9430392743       17.1726801707  MEMB      22              0.0000000000
      2213        22  SOPE      O21           -12.7131392235       14.1050136319       17.1988843911  MEMB      22              0.0000000000
      2214        22  SOPE      C21           -13.5570697799       13.7275846021       16.2908450061  MEMB      22              0.0000000000
      2215        22  SOPE      O22           -14.2159131708       14.4704054322       15.5900450837  MEMB      22              0.0000000000
      2216        22  SOPE      C22           -13.5788132441       12.1769457236       16.2397403584  MEMB      22              0.0000000000
      2217        22  SOPE      H2R           -14.2578382010       11.8817183028       15.4114366747  MEMB      22              0.0000000000
      2218        22  SOPE      H2S           -13.8291833051       11.7838866646       17.2482743507  MEMB      22              0.0000000000
      2219        22  SOPE      C3            -11.6398321606       15.8756908257       16.1425057989  MEMB      22              0.0000000000
      2220        22  SOPE      HX            -12.0084957391       15.4735843769       15.1746635762  MEMB      22              0.0000000000
      2221        22  SOPE      HY            -10.6919754131       15.3020179013       16.2248950140  MEMB      22              0.0000000000
      2222        22  SOPE      O31           -11.4552324705       17.2721544024       15.9833349842  MEMB      22              0.0000000000
      2223        22  SOPE      C31           -10.2151029653       17.8234982642       16.1499933411  MEMB      22              0.0000000000
      2224        22  SOPE      O32            -9.2295057762       17.1859492559       16.4973108223  MEMB      22              0.0000000000
      2225        22  SOPE      C32           -10.3808552036       19.3249459402       15.7267574500  MEMB      22              0.0000000000
      2226        22  SOPE      H2X            -9.4797130436       19.8096447101       16.1595750722  MEMB      22              0.0000000000
      2227        22  SOPE      H2Y           -11.3105495289       19.8159968055       16.0857265126  MEMB      22              0.0000000000
      2228        22  SOPE      C23           -12.1775938235       11.5818869142       15.9126491794  MEMB      22              0.0000000000
      2229        22  SOPE      H3R           -12.3698828686       10.4955500853       15.7814311473  MEMB      22              0.0000000000
      2230        22  SOPE      H3S           -11.5786604209       11.7327259818       16.8361464132  MEMB      22              0.0000000000
      2231        22  SOPE      C24           -11.6506080955       12.1475230746       14.5887538422  MEMB      22              0.0000000000
      2232        22  SOPE      H4R           -12.5164778109       12.0397255558       13.9010255220  MEMB      22              0.0000000000
      2233        22  SOPE      H4S           -11.4895920662       13.2417197242       14.6942459543  MEMB      22              0.0000000000
      2234        22  SOPE      C25           -10.3759599855       11.5296761612       14.0571422968  MEMB      22              0.0000000000
      2235        22  SOPE      H5R            -9.5918733895       11.9244145828       14.7381054127  MEMB      22              0.0000000000
      2236        22  SOPE      H5S           -10.4021054539       10.4210714658       14.1252047555  MEMB      22              0.0000000000
      2237        22  SOPE      C26            -9.9788781073       11.9481776662       12.6839708410  MEMB      22              0.0000000000
      2238        22  SOPE      H6R            -9.2828758518       11.1914259541       12.2629859078  MEMB      22              0.0000000000
      2239        22  SOPE      H6S           -10.9151840142       11.9338782054       12.0861015171  MEMB      22              0.0000000000
      2240        22  SOPE      C27            -9.3516656121       13.4023702033       12.4572310883  MEMB      22              0.0000000000
      2241        22  SOPE      H7R            -9.9051738368       14.1309739747       13.0873794354  MEMB      22              0.0000000000
      2242        22  SOPE      H7S            -8.4254133663       13.3517965326       13.0686396507  MEMB      22              0.0000000000
      2243        22  SOPE      C28            -9.1365432097       13.8117624353       11.0309872661  MEMB      22              0.0000000000
      2244        22  SOPE      H8R           -10.1241963913       13.6754575101       10.5408001698  MEMB      22              0.0000000000
      2245        22  SOPE      H8S            -8.8977897428       14.8844090902       10.8674412950  MEMB      22              0.0000000000
      2246        22  SOPE      C29            -8.2458829072       12.9653994192       10.1179943509  MEMB      22              0.0000000000
      2247        22  SOPE      H91            -7.2109380769       12.8101761737       10.4568087211  MEMB      22              0.0000000000
      2248        22  SOPE      C210           -8.4882062296       12.4305019175        8.9699304929  MEMB      22              0.0000000000
      2249        22  SOPE      H101           -7.6702356895       12.0725608028        8.3274342549  MEMB      22              0.0000000000
      2250        22  SOPE      C211           -9.8747826818       12.5444640209        8.3096563297  MEMB      22              0.0000000000
      2251        22  SOPE      H11R           -9.9038906544       13.5319164192        7.8013133009  MEMB      22              0.0000000000
      2252        22  SOPE      H11S          -10.7279658780       12.6315017579        9.0159311763  MEMB      22              0.0000000000
      2253        22  SOPE      C212          -10.3111357654       11.2893318748        7.5308575321  MEMB      22              0.0000000000
      2254        22  SOPE      H12R          -11.2713123410       11.5929983847        7.0616367330  MEMB      22              0.0000000000
      2255        22  SOPE      H12S          -10.4292424584       10.4657963385        8.2671738048  MEMB      22              0.0000000000
      2256        22  SOPE      C213           -9.3251698022       10.8992257026        6.3952954543  MEMB      22              0.0000000000
      2257        22  SOPE      H13R           -9.8289524756       10.0642886605        5.8629382280  MEMB      22              0.0000000000
      2258        22  SOPE      H13S           -8.3900610968       10.7004800625        6.9613277933  MEMB      22              0.0000000000
      2259        22  SOPE      C214           -8.9208720035       11.9622521874        5.3357937865  MEMB      22              0.0000000000
      2260        22  SOPE      H14R           -8.0667191803       11.4465765252        4.8470999765  MEMB      22              0.0000000000
      2261        22  SOPE      H14S           -8.5734605353       12.7897578750        5.9906681531  MEMB      22              0.0000000000
      2262        22  SOPE      C215           -9.9219991414       12.5573518520        4.4560552640  MEMB      22              0.0000000000
      2263        22  SOPE      H15R          -10.6418960011       12.9927770866        5.1816419085  MEMB      22              0.0000000000
      2264        22  SOPE      H15S          -10.4382284234       11.7453906267        3.9005849055  MEMB      22              0.0000000000
      2265        22  SOPE      C216           -9.3920564568       13.5506100840        3.3698160454  MEMB      22              0.0000000000
      2266        22  SOPE      H16R           -8.8280433209       14.2281287577        4.0459660418  MEMB      22              0.0000000000
      2267        22  SOPE      H16S          -10.2147418688       14.2380209852        3.0783093330  MEMB      22              0.0000000000
      2268        22  SOPE      C217           -8.8136588920       12.9192586536        2.1193456978  MEMB      22              0.0000000000
      2269        22  SOPE      H17R           -9.4977228128       12.1208680214        1.7602503464  MEMB      22              0.0000000000
      2270        22  SOPE      H17S           -7.9293897953       12.3231170611        2.4308010651  MEMB      22              0.0000000000
      2271        22  SOPE      C218           -8.4108763858       13.7734734989        0.9870192319  MEMB      22              0.0000000000
      2272        22  SOPE      H18R           -7.4838104003       13.4566794677        0.4630832327  MEMB      22              0.0000000000
      2273        22  SOPE      H18S           -8.3588266182       14.8200112510        1.3563039633  MEMB      22              0.0000000000
      2274        22  SOPE      H18T           -9.2483840025       13.8275379553        0.2590233751  MEMB      22              0.0000000000
      2275        22  SOPE      C33           -10.1500134450       19.4782215716       14.2436565613  MEMB      22              0.0000000000
      2276        22  SOPE      H3X            -9.4105712597       18.7026833182       13.9502505931  MEMB      22              0.0000000000
      2277        22  SOPE      H3Y            -9.6613399297       20.4445181733       13.9950811417  MEMB      22              0.0000000000
      2278        22  SOPE      C34           -11.5228433982       19.3825870469       13.5345823484  MEMB      22              0.0000000000
      2279        22  SOPE      H4X           -12.1767761201       20.0062685420       14.1808908658  MEMB      22              0.0000000000
      2280        22  SOPE      H4Y           -11.9075386920       18.3453095838       13.6364920682  MEMB      22              0.0000000000
      2281        22  SOPE      C35           -11.5344652373       19.8746248195       12.0815254664  MEMB      22              0.0000000000
      2282        22  SOPE      H5X           -11.4190870663       20.9505282652       11.8296517077  MEMB      22              0.0000000000
      2283        22  SOPE      H5Y           -12.4672465902       19.5536939741       11.5704058032  MEMB      22              0.0000000000
      2284        22  SOPE      C36           -10.3188612940       19.2729704419       11.2898299668  MEMB      22              0.0000000000
      2285        22  SOPE      H6X           -10.2525194795       18.1650017140       11.3380491114  MEMB      22              0.0000000000
      2286        22  SOPE      H6Y            -9.4138806581       19.7221104188       11.7520039396  MEMB      22              0.0000000000
      2287        22  SOPE      C37           -10.2944632644       19.5751207019        9.8338090174  MEMB      22              0.0000000000
      2288        22  SOPE      H7X            -9.4242073810       19.1247245982        9.3102460019  MEMB      22              0.0000000000
      2289        22  SOPE      H7Y           -10.3232446616       20.6854613683        9.8085908592  MEMB      22              0.0000000000
      2290        22  SOPE      C38           -11.4196814352       18.9250170290        9.0148084160  MEMB      22              0.0000000000
      2291        22  SOPE      H8X           -11.4208121107       19.0216609990        7.9080202158  MEMB      22              0.0000000000
      2292        22  SOPE      H8Y           -12.3336022128       19.4804193280        9.3158037165  MEMB      22              0.0000000000
      2293        22  SOPE      C39           -11.5705520187       17.4736580785        9.3114488672  MEMB      22              0.0000000000
      2294        22  SOPE      H9X           -11.6740150427       17.1335882743       10.3640500448  MEMB      22              0.0000000000
      2295        22  SOPE      H9Y           -10.7113428839       16.8825723854        8.9284369363  MEMB      22              0.0000000000
      2296        22  SOPE      C310          -12.8197757507       16.9078354196        8.6451105201  MEMB      22              0.0000000000
      2297        22  SOPE      H10X          -13.6810707218       17.4584916930        9.0801619297  MEMB      22              0.0000000000
      2298        22  SOPE      H10Y          -13.0011689673       15.8377875787        8.8826278290  MEMB      22              0.0000000000
      2299        22  SOPE      C311          -12.7725692219       17.0265367832        7.1212364551  MEMB      22              0.0000000000
      2300        22  SOPE      H11X          -12.8435820381       18.0904482780        6.8091934561  MEMB      22              0.0000000000
      2301        22  SOPE      H11Y          -13.5713927596       16.3915146777        6.6819768774  MEMB      22              0.0000000000
      2302        22  SOPE      C312          -11.4480064702       16.5320854073        6.5033377226  MEMB      22              0.0000000000
      2303        22  SOPE      H12X          -11.1612118826       15.6625214963        7.1325665354  MEMB      22              0.0000000000
      2304        22  SOPE      H12Y          -10.5968063724       17.2446290240        6.5487357555  MEMB      22              0.0000000000
      2305        22  SOPE      C313          -11.5884024469       16.0808860096        5.0414849800  MEMB      22              0.0000000000
      2306        22  SOPE      H13X          -12.2007656445       15.1552514100        4.9911602539  MEMB      22              0.0000000000
      2307        22  SOPE      H13Y          -10.5722673967       15.7880233489        4.7008632626  MEMB      22              0.0000000000
      2308        22  SOPE      C314          -11.9614939776       17.1842470912        4.0914777140  MEMB      22              0.0000000000
      2309        22  SOPE      H14X          -12.9530662642       17.5345014774        4.4498451960  MEMB      22              0.0000000000
      2310        22  SOPE      H14Y          -12.0864254470       16.8570685062        3.0371209295  MEMB      22              0.0000000000
      2311        22  SOPE      C315          -11.0173619872       18.4426811455        4.1798487212  MEMB      22              0.0000000000
      2312        22  SOPE      H15X          -10.8611887411       18.8973383483        5.1814563947  MEMB      22              0.0000000000
      2313        22  SOPE      H15Y          -11.5554128726       19.2218089176        3.5986588075  MEMB      22              0.0000000000
      2314        22  SOPE      C316           -9.6711221677       18.3338109715        3.4490437301  MEMB      22              0.0000000000
      2315        22  SOPE      H16X           -9.8419180528       18.0007107350        2.4030069428  MEMB      22              0.0000000000
      2316        22  SOPE      H16Y           -9.0735269166       17.5028015944        3.8810453791  MEMB      22              0.0000000000
      2317        22  SOPE      C317           -8.8026594350       19.5683425250        3.7239947594  MEMB      22              0.0000000000
      2318        22  SOPE      H17X           -7.7811468238       19.2603903629        3.4141598995  MEMB      22              0.0000000000
      2319        22  SOPE      H17Y           -8.7293290091       19.6314062475        4.8307775531  MEMB      22              0.0000000000
      2320        22  SOPE      C318           -9.2711647291       20.8253873785        3.0170024349  MEMB      22              0.0000000000
      2321        22  SOPE      H18X          -10.2396388742       21.2430348921        3.3662139145  MEMB      22              0.0000000000
      2322        22  SOPE      H18Y           -9.2111571513       20.6316781080        1.9246671748  MEMB      22              0.0000000000
      2323        22  SOPE      H18Z           -8.5159613056       21.5991581592        3.2724764688  MEMB      22              0.0000000000
      2324        23  SAPE      N              13.9544755759      -11.2801025669       19.0818100194  MEMB      23              0.0000000000
      2325        23  SAPE      HN1            13.2216512448      -11.6631777241       18.4510784937  MEMB      23              0.0000000000
      2326        23  SAPE      HN2            14.6886777391      -12.0037468576       19.2192370960  MEMB      23              0.0000000000
      2327        23  SAPE      HN3            13.6305722456      -11.1935957867       20.0662911781  MEMB      23              0.0000000000
      2328        23  SAPE      C12            14.4790784179      -10.0057166006       18.3783448551  MEMB      23              0.0000000000
      2329        23  SAPE      H12A           13.9227939225       -9.1488319275       18.8149421803  MEMB      23              0.0000000000
      2330        23  SAPE      H12B           14.2443170690      -10.1990088444       17.3097727925  MEMB      23              0.0000000000
      2331        23  SAPE      C11            15.9473608451       -9.8577102346       18.5798222320  MEMB      23              0.0000000000
      2332        23  SAPE      H11A           16.3262154205       -9.0733406846       17.8902177009  MEMB      23              0.0000000000
      2333        23  SAPE      H11B           16.5450182611      -10.7547230699       18.3105740260  MEMB      23              0.0000000000
      2334        23  SAPE      P              17.0294821348      -10.3330480882       20.8478505258  MEMB      23              0.0000000000
      2335        23  SAPE      O13            17.4154922845       -9.4698242813       22.0332152422  MEMB      23              0.0000000000
      2336        23  SAPE      O14            16.4108176911      -11.6897497298       21.1161639871  MEMB      23              0.0000000000
      2337        23  SAPE      O12            16.0862728067       -9.5156252310       19.9621315021  MEMB      23              0.0000000000
      2338        23  SAPE      O11            18.3732866439      -10.5660784676       20.0006616396  MEMB      23              0.0000000000
      2339        23  SAPE      C1             19.1179679693       -9.4193200404       19.6484416636  MEMB      23              0.0000000000
      2340        23  SAPE      HA             18.4997717248       -8.4973607824       19.6021211745  MEMB      23              0.0000000000
      2341        23  SAPE      HB             19.9027556196       -9.3660758520       20.4330398406  MEMB      23              0.0000000000
      2342        23  SAPE      C2             19.8790349859       -9.6919865694       18.3015454259  MEMB      23              0.0000000000
      2343        23  SAPE      HS             20.7152635386       -8.9648056675       18.2224807879  MEMB      23              0.0000000000
      2344        23  SAPE      O21            18.9553081007       -9.4414541224       17.2158214584  MEMB      23              0.0000000000
      2345        23  SAPE      C21            18.8081088968       -8.1430698142       16.9020847640  MEMB      23              0.0000000000
      2346        23  SAPE      O22            19.3798965590       -7.2407565697       17.4895289738  MEMB      23              0.0000000000
      2347        23  SAPE      C22            17.7312298931       -7.9066211305       15.8145754641  MEMB      23              0.0000000000
      2348        23  SAPE      H2R            16.7767177499       -7.6862321674       16.3386523196  MEMB      23              0.0000000000
      2349        23  SAPE      H2S            17.8839173327       -6.9322609680       15.3030779337  MEMB      23              0.0000000000
      2350        23  SAPE      C3             20.3769231723      -11.1322488035       18.2152954630  MEMB      23              0.0000000000
      2351        23  SAPE      HX             20.8937991996      -11.3347877374       19.1776561822  MEMB      23              0.0000000000
      2352        23  SAPE      HY             21.1666729410      -11.2698312728       17.4460833834  MEMB      23              0.0000000000
      2353        23  SAPE      O31            19.3078444782      -12.0396097064       17.9971983872  MEMB      23              0.0000000000
      2354        23  SAPE      C31            19.1874234438      -12.5519545239       16.7706879182  MEMB      23              0.0000000000
      2355        23  SAPE      O32            19.8523432391      -12.3333713327       15.8077229950  MEMB      23              0.0000000000
      2356        23  SAPE      C32            18.1320657297      -13.6697352694       16.7543965894  MEMB      23              0.0000000000
      2357        23  SAPE      H2X            17.1679241160      -13.2272451098       16.4243138510  MEMB      23              0.0000000000
      2358        23  SAPE      H2Y            18.0130841611      -14.1585387435       17.7449697520  MEMB      23              0.0000000000
      2359        23  SAPE      C23            17.7183987271       -8.9027038612       14.6230420155  MEMB      23              0.0000000000
      2360        23  SAPE      H3R            18.7888550707       -9.2000333945       14.6167776325  MEMB      23              0.0000000000
      2361        23  SAPE      H3S            17.5129776271       -8.5216178695       13.5998625419  MEMB      23              0.0000000000
      2362        23  SAPE      C24            16.8388075102      -10.1928859856       14.5668728890  MEMB      23              0.0000000000
      2363        23  SAPE      H4R            16.7948761010      -10.7281266353       15.5394510570  MEMB      23              0.0000000000
      2364        23  SAPE      H4S            17.3418660986      -10.8919762300       13.8650709449  MEMB      23              0.0000000000
      2365        23  SAPE      C25            15.4359777229       -9.7425445808       14.2620342357  MEMB      23              0.0000000000
      2366        23  SAPE      H5R            14.8789167566       -9.2103270152       15.0471630416  MEMB      23              0.0000000000
      2367        23  SAPE      C26            14.8735333197       -9.8830737446       13.0557234373  MEMB      23              0.0000000000
      2368        23  SAPE      H6R            13.8316877936       -9.6025616223       12.8415485282  MEMB      23              0.0000000000
      2369        23  SAPE      C27            15.5410906200      -10.4770778964       11.8770222960  MEMB      23              0.0000000000
      2370        23  SAPE      H7R            15.5959490609      -11.5756892421       12.0331137905  MEMB      23              0.0000000000
      2371        23  SAPE      H7S            16.5871150436      -10.1069301620       11.8209463619  MEMB      23              0.0000000000
      2372        23  SAPE      C28            14.7865336388      -10.3017825904       10.5512302195  MEMB      23              0.0000000000
      2373        23  SAPE      H8R            13.7609394487      -10.6951453998       10.6097286428  MEMB      23              0.0000000000
      2374        23  SAPE      C29            15.3380930903       -9.9659559155        9.3371794648  MEMB      23              0.0000000000
      2375        23  SAPE      H9R            14.6906644214       -9.7532868566        8.4736937494  MEMB      23              0.0000000000
      2376        23  SAPE      C210           16.7913760422       -9.6461247223        9.1204152400  MEMB      23              0.0000000000
      2377        23  SAPE      H10R           17.0691728460      -10.3242858854        8.2854014175  MEMB      23              0.0000000000
      2378        23  SAPE      H10S           17.3058659514      -10.0864989767       10.0011479983  MEMB      23              0.0000000000
      2379        23  SAPE      C211           16.9147897473       -8.1717310783        8.9634779500  MEMB      23              0.0000000000
      2380        23  SAPE      H11R           16.6636059520       -7.6143957472        9.8779628943  MEMB      23              0.0000000000
      2381        23  SAPE      C212           17.4387331581       -7.5847419669        7.8348118745  MEMB      23              0.0000000000
      2382        23  SAPE      H12R           17.7697444112       -6.5446152238        7.9710757844  MEMB      23              0.0000000000
      2383        23  SAPE      C213           17.8745874215       -8.1456957870        6.5577881171  MEMB      23              0.0000000000
      2384        23  SAPE      H13R           17.8243514569       -7.4701279988        5.6772170620  MEMB      23              0.0000000000
      2385        23  SAPE      H13S           17.2157111232       -8.9669460572        6.2031735343  MEMB      23              0.0000000000
      2386        23  SAPE      C214           19.2605140290       -8.7024715421        6.5022579506  MEMB      23              0.0000000000
      2387        23  SAPE      H14R           19.4609993567       -9.3039984685        7.4011307471  MEMB      23              0.0000000000
      2388        23  SAPE      C215           20.2036953389       -8.5652834484        5.6026152379  MEMB      23              0.0000000000
      2389        23  SAPE      H15R           21.1647728864       -9.0255627959        5.8755124026  MEMB      23              0.0000000000
      2390        23  SAPE      C216           20.2515258680       -7.8342069789        4.3034048217  MEMB      23              0.0000000000
      2391        23  SAPE      H16R           21.2104514238       -7.3495272712        4.0207955389  MEMB      23              0.0000000000
      2392        23  SAPE      H16S           19.4698987011       -7.0454540095        4.3387446977  MEMB      23              0.0000000000
      2393        23  SAPE      C217           19.8150630083       -8.6470932860        3.0358548320  MEMB      23              0.0000000000
      2394        23  SAPE      H17R           18.8029347942       -9.0452930079        3.2624697180  MEMB      23              0.0000000000
      2395        23  SAPE      H17S           20.5524949895       -9.4741721442        2.9555067722  MEMB      23              0.0000000000
      2396        23  SAPE      C218           19.8961409194       -7.7204807919        1.8520554610  MEMB      23              0.0000000000
      2397        23  SAPE      H18R           20.9843140649       -7.5165801202        1.7591863474  MEMB      23              0.0000000000
      2398        23  SAPE      H18S           19.3200184617       -6.7844079875        2.0138328484  MEMB      23              0.0000000000
      2399        23  SAPE      C219           19.5994944488       -8.4522370735        0.5709480652  MEMB      23              0.0000000000
      2400        23  SAPE      H19R           18.5668477350       -8.8585264699        0.5171880113  MEMB      23              0.0000000000
      2401        23  SAPE      H19S           20.2965723585       -9.3110730523        0.4670062452  MEMB      23              0.0000000000
      2402        23  SAPE      C220           19.8414068428       -7.6177164813       -0.6831564246  MEMB      23              0.0000000000
      2403        23  SAPE      H20R           19.1246965620       -6.7712336898       -0.7473001585  MEMB      23              0.0000000000
      2404        23  SAPE      H20S           19.5995802007       -8.2257097954       -1.5810332882  MEMB      23              0.0000000000
      2405        23  SAPE      H20T           20.8316479817       -7.1202795517       -0.7625329618  MEMB      23              0.0000000000
      2406        23  SAPE      C33            18.6441609549      -14.7547624552       15.7413338364  MEMB      23              0.0000000000
      2407        23  SAPE      H3X            18.0264064605      -15.6242571722       16.0522672175  MEMB      23              0.0000000000
      2408        23  SAPE      H3Y            19.7406436481      -14.8951545686       15.8524042099  MEMB      23              0.0000000000
      2409        23  SAPE      C34            18.2881863812      -14.3937090957       14.2938387874  MEMB      23              0.0000000000
      2410        23  SAPE      H4X            18.6141494107      -13.3900490605       13.9463680436  MEMB      23              0.0000000000
      2411        23  SAPE      H4Y            17.1801001330      -14.3511232646       14.3620481378  MEMB      23              0.0000000000
      2412        23  SAPE      C35            18.5623764348      -15.3798109444       13.1590522979  MEMB      23              0.0000000000
      2413        23  SAPE      H5X            17.9192324459      -16.2569274441       13.3856653550  MEMB      23              0.0000000000
      2414        23  SAPE      H5Y            19.6335639258      -15.6719462672       13.1198700049  MEMB      23              0.0000000000
      2415        23  SAPE      C36            18.1384563103      -14.8796733233       11.7740887735  MEMB      23              0.0000000000
      2416        23  SAPE      H6X            17.1358336389      -14.4092071656       11.8620092556  MEMB      23              0.0000000000
      2417        23  SAPE      H6Y            18.1502055295      -15.8460343148       11.2260656818  MEMB      23              0.0000000000
      2418        23  SAPE      C37            19.0995149755      -13.7763712658       11.2358191655  MEMB      23              0.0000000000
      2419        23  SAPE      H7X            20.0988670224      -13.9777915861       11.6774596359  MEMB      23              0.0000000000
      2420        23  SAPE      H7Y            18.8674221741      -12.7196164814       11.4882545537  MEMB      23              0.0000000000
      2421        23  SAPE      C38            19.1951655084      -13.9520498238        9.7326112997  MEMB      23              0.0000000000
      2422        23  SAPE      H8X            19.2967379052      -15.0257259250        9.4657340313  MEMB      23              0.0000000000
      2423        23  SAPE      H8Y            20.1346433787      -13.5258498503        9.3202331980  MEMB      23              0.0000000000
      2424        23  SAPE      C39            17.9157784756      -13.3887614553        9.0557337738  MEMB      23              0.0000000000
      2425        23  SAPE      H9X            18.0011971989      -12.2811566734        9.0403548706  MEMB      23              0.0000000000
      2426        23  SAPE      H9Y            17.0691422345      -13.6038087279        9.7422341709  MEMB      23              0.0000000000
      2427        23  SAPE      C310           17.7466681632      -13.8887427212        7.6333183587  MEMB      23              0.0000000000
      2428        23  SAPE      H10X           17.7854969852      -14.9851620610        7.8084691216  MEMB      23              0.0000000000
      2429        23  SAPE      H10Y           18.5636873446      -13.5588667933        6.9565744637  MEMB      23              0.0000000000
      2430        23  SAPE      C311           16.3231022477      -13.6134016371        7.0877852042  MEMB      23              0.0000000000
      2431        23  SAPE      H11X           15.9605022718      -12.7024321822        7.6102574866  MEMB      23              0.0000000000
      2432        23  SAPE      H11Y           15.7233809448      -14.4731216221        7.4559387879  MEMB      23              0.0000000000
      2433        23  SAPE      C312           16.1435256892      -13.4441304403        5.6774211885  MEMB      23              0.0000000000
      2434        23  SAPE      H12X           16.3061435282      -14.4766486635        5.3008809777  MEMB      23              0.0000000000
      2435        23  SAPE      H12Y           16.9029664094      -12.7808381843        5.2109295145  MEMB      23              0.0000000000
      2436        23  SAPE      C313           14.7896558336      -12.9615481648        5.2293683128  MEMB      23              0.0000000000
      2437        23  SAPE      H13X           14.0757480927      -13.6789219737        5.6876596947  MEMB      23              0.0000000000
      2438        23  SAPE      H13Y           14.6981173203      -13.1010928896        4.1309740057  MEMB      23              0.0000000000
      2439        23  SAPE      C314           14.4535066015      -11.5140797574        5.5894711980  MEMB      23              0.0000000000
      2440        23  SAPE      H14X           15.0130347851      -11.2373864337        6.5085411076  MEMB      23              0.0000000000
      2441        23  SAPE      H14Y           13.3976344029      -11.5400422452        5.9341169666  MEMB      23              0.0000000000
      2442        23  SAPE      C315           14.6748521987      -10.4629629623        4.4464234469  MEMB      23              0.0000000000
      2443        23  SAPE      H15X           14.3295396021       -9.5126023996        4.9067442836  MEMB      23              0.0000000000
      2444        23  SAPE      H15Y           13.8827633842      -10.6688651845        3.6950777575  MEMB      23              0.0000000000
      2445        23  SAPE      C316           16.0977562177      -10.4157900820        3.7767988882  MEMB      23              0.0000000000
      2446        23  SAPE      H16X           16.3751567929      -11.4768256051        3.5991101913  MEMB      23              0.0000000000
      2447        23  SAPE      H16Y           16.8236693917      -10.0337396502        4.5260702326  MEMB      23              0.0000000000
      2448        23  SAPE      C317           15.9886387021       -9.7593699406        2.4334320363  MEMB      23              0.0000000000
      2449        23  SAPE      H17X           15.5355070652      -10.4902480738        1.7300052654  MEMB      23              0.0000000000
      2450        23  SAPE      H17Y           17.0459254513       -9.5624437833        2.1547100464  MEMB      23              0.0000000000
      2451        23  SAPE      C318           15.3313812110       -8.2848112912        2.4826251448  MEMB      23              0.0000000000
      2452        23  SAPE      H18X           15.5957709867       -7.8451723400        3.4680879996  MEMB      23              0.0000000000
      2453        23  SAPE      H18Y           14.2222563811       -8.3442762401        2.5076648580  MEMB      23              0.0000000000
      2454        23  SAPE      H18Z           15.6108960062       -7.5527289505        1.6950682461  MEMB      23              0.0000000000
      2455        24  SAPS      N              10.2225623255       16.2223236747       20.0446933899  MEMB      24              0.0000000000
      2456        24  SAPS      HN1            10.2928999527       16.6565152785       20.9871000637  MEMB      24              0.0000000000
      2457        24  SAPS      HN2            10.5075837706       15.2312400381       20.1792888299  MEMB      24              0.0000000000
      2458        24  SAPS      HN3            10.8828288147       16.6984602648       19.3974360256  MEMB      24              0.0000000000
      2459        24  SAPS      C12             8.7727636388       16.3771022263       19.6683756141  MEMB      24              0.0000000000
      2460        24  SAPS      H12A            8.5746201330       16.7559611504       18.6766069470  MEMB      24              0.0000000000
      2461        24  SAPS      C13             8.0008109526       15.1057047552       19.6198126094  MEMB      24              0.0000000000
      2462        24  SAPS      O13A            8.5385333003       13.9633198186       19.8577234341  MEMB      24              0.0000000000
      2463        24  SAPS      O13B            6.7427999680       15.2914848613       19.4830759247  MEMB      24              0.0000000000
      2464        24  SAPS      C11             8.0375272129       17.2859039806       20.6802137110  MEMB      24              0.0000000000
      2465        24  SAPS      H11A            7.9293837809       16.6630984887       21.5938543612  MEMB      24              0.0000000000
      2466        24  SAPS      H11B            7.0219890817       17.5014452605       20.2845555871  MEMB      24              0.0000000000
      2467        24  SAPS      P               8.4075016827       19.9285429730       20.1380504578  MEMB      24              0.0000000000
      2468        24  SAPS      O13             6.9658501678       20.1888693975       20.4917451938  MEMB      24              0.0000000000
      2469        24  SAPS      O14             9.4544354262       20.9003565914       20.5725705113  MEMB      24              0.0000000000
      2470        24  SAPS      O12             8.7989750531       18.4618684133       20.8251133981  MEMB      24              0.0000000000
      2471        24  SAPS      O11             8.5655221762       19.7485502102       18.6186257974  MEMB      24              0.0000000000
      2472        24  SAPS      C1              7.8793870478       20.5767924165       17.6551635854  MEMB      24              0.0000000000
      2473        24  SAPS      HA              7.6900179140       21.5927522001       18.0629452007  MEMB      24              0.0000000000
      2474        24  SAPS      HB              8.5716174384       20.7051141684       16.7957034922  MEMB      24              0.0000000000
      2475        24  SAPS      C2              6.4925882254       19.9653695656       17.1818896762  MEMB      24              0.0000000000
      2476        24  SAPS      HS              5.6914556495       20.2422831187       17.9001004343  MEMB      24              0.0000000000
      2477        24  SAPS      O21             6.6946564789       18.5196169312       17.0852039612  MEMB      24              0.0000000000
      2478        24  SAPS      C21             5.6883109727       17.7400320621       16.7790545634  MEMB      24              0.0000000000
      2479        24  SAPS      O22             4.4877380478       18.0312886035       17.0445479971  MEMB      24              0.0000000000
      2480        24  SAPS      C22             6.1401185884       16.3791908131       16.1727730105  MEMB      24              0.0000000000
      2481        24  SAPS      H2R             6.7639386998       15.8123505579       16.8965560188  MEMB      24              0.0000000000
      2482        24  SAPS      H2S             5.3135203811       15.6617049626       15.9823254738  MEMB      24              0.0000000000
      2483        24  SAPS      C3              6.2084353588       20.6361311312       15.7971750131  MEMB      24              0.0000000000
      2484        24  SAPS      HX              6.1043223661       21.7331711812       15.9385410736  MEMB      24              0.0000000000
      2485        24  SAPS      HY              5.2806490115       20.1927692427       15.3765044615  MEMB      24              0.0000000000
      2486        24  SAPS      O31             7.3119770758       20.4778786445       14.8215195356  MEMB      24              0.0000000000
      2487        24  SAPS      C31             7.1250184327       20.2644289711       13.5186979071  MEMB      24              0.0000000000
      2488        24  SAPS      O32             6.0710189428       20.1802073281       12.9662997978  MEMB      24              0.0000000000
      2489        24  SAPS      C32             8.3899803606       20.0744670790       12.7740105479  MEMB      24              0.0000000000
      2490        24  SAPS      H2X             8.9792633735       19.1829459494       13.0777486349  MEMB      24              0.0000000000
      2491        24  SAPS      H2Y             9.0071997176       20.9858927285       12.9245587304  MEMB      24              0.0000000000
      2492        24  SAPS      C23             7.0864620166       16.5744916483       14.9611047108  MEMB      24              0.0000000000
      2493        24  SAPS      H3R             7.9440814747       17.1516116920       15.3682194816  MEMB      24              0.0000000000
      2494        24  SAPS      H3S             6.4820575440       17.1081898960       14.1967861937  MEMB      24              0.0000000000
      2495        24  SAPS      C24             7.6719016427       15.2085793253       14.5092040973  MEMB      24              0.0000000000
      2496        24  SAPS      H4R             6.8000284660       14.5783378468       14.2317983825  MEMB      24              0.0000000000
      2497        24  SAPS      H4S             8.2363005277       14.7492292979       15.3487115045  MEMB      24              0.0000000000
      2498        24  SAPS      C25             8.4619504923       15.5780696706       13.3135123599  MEMB      24              0.0000000000
      2499        24  SAPS      H5R             9.5399759645       15.6023383125       13.5309339939  MEMB      24              0.0000000000
      2500        24  SAPS      C26             7.9342123474       15.8515431623       12.0824818823  MEMB      24              0.0000000000
      2501        24  SAPS      H6R             8.6191389416       16.1838296662       11.2884657385  MEMB      24              0.0000000000
      2502        24  SAPS      C27             6.4704428980       15.8178647201       11.7915838268  MEMB      24              0.0000000000
      2503        24  SAPS      H7R             6.0010797870       16.8216902730       11.8712943805  MEMB      24              0.0000000000
      2504        24  SAPS      H7S             5.9216763032       15.3210491594       12.6200467740  MEMB      24              0.0000000000
      2505        24  SAPS      C28             6.1440196939       15.0541057674       10.4794975528  MEMB      24              0.0000000000
      2506        24  SAPS      H8R             5.8762302877       14.0092331570       10.6952062118  MEMB      24              0.0000000000
      2507        24  SAPS      C29             6.0598130900       15.5144192000        9.2476408768  MEMB      24              0.0000000000
      2508        24  SAPS      H9R             6.0778802465       14.7732071147        8.4350658333  MEMB      24              0.0000000000
      2509        24  SAPS      C210            6.2553803598       16.9215115298        8.8244035338  MEMB      24              0.0000000000
      2510        24  SAPS      H10R            6.9963178973       16.7821549717        8.0083683108  MEMB      24              0.0000000000
      2511        24  SAPS      H10S            6.6787788315       17.5666994748        9.6236445939  MEMB      24              0.0000000000
      2512        24  SAPS      C211            4.9160240835       17.4927707059        8.4182910024  MEMB      24              0.0000000000
      2513        24  SAPS      H11R            4.1039482003       16.7885425578        8.6519477991  MEMB      24              0.0000000000
      2514        24  SAPS      C212            4.7193015562       18.6937989818        7.8222332197  MEMB      24              0.0000000000
      2515        24  SAPS      H12R            3.6963017166       18.9586381518        7.5167313122  MEMB      24              0.0000000000
      2516        24  SAPS      C213            5.6887094033       19.7416804407        7.4635748738  MEMB      24              0.0000000000
      2517        24  SAPS      H13R            6.2933163318       20.0250665945        8.3515291959  MEMB      24              0.0000000000
      2518        24  SAPS      H13S            5.0568073737       20.6000256761        7.1501027526  MEMB      24              0.0000000000
      2519        24  SAPS      C214            6.4880768638       19.3756972825        6.2752494109  MEMB      24              0.0000000000
      2520        24  SAPS      H14R            7.4855593562       18.9681028748        6.4963720466  MEMB      24              0.0000000000
      2521        24  SAPS      C215            6.1712536542       19.4230908072        4.9773029080  MEMB      24              0.0000000000
      2522        24  SAPS      H15R            6.9368656493       19.0264610184        4.2942774506  MEMB      24              0.0000000000
      2523        24  SAPS      C216            4.8744849661       19.9161916125        4.3731937734  MEMB      24              0.0000000000
      2524        24  SAPS      H16R            5.1112371743       20.8655685101        3.8469298459  MEMB      24              0.0000000000
      2525        24  SAPS      H16S            4.2465300631       20.2890248217        5.2104448301  MEMB      24              0.0000000000
      2526        24  SAPS      C217            3.9557670719       18.8611988889        3.7599812501  MEMB      24              0.0000000000
      2527        24  SAPS      H17R            2.9266580350       19.2797846020        3.7664100922  MEMB      24              0.0000000000
      2528        24  SAPS      H17S            3.8969866889       17.9136046512        4.3369830354  MEMB      24              0.0000000000
      2529        24  SAPS      C218            4.4540791868       18.3649173630        2.3507386580  MEMB      24              0.0000000000
      2530        24  SAPS      H18R            3.5756445048       17.8959716452        1.8580299491  MEMB      24              0.0000000000
      2531        24  SAPS      H18S            5.2476966435       17.6289029993        2.6012899228  MEMB      24              0.0000000000
      2532        24  SAPS      C219            4.8025587296       19.4559049282        1.2811403022  MEMB      24              0.0000000000
      2533        24  SAPS      H19R            5.3273307404       20.2503424971        1.8536815973  MEMB      24              0.0000000000
      2534        24  SAPS      H19S            3.8214267839       19.8437378164        0.9328790163  MEMB      24              0.0000000000
      2535        24  SAPS      C220            5.6967552814       18.9170735242        0.1107690437  MEMB      24              0.0000000000
      2536        24  SAPS      H20R            6.6904188865       18.6562781454        0.5337814861  MEMB      24              0.0000000000
      2537        24  SAPS      H20S            5.9116199596       19.7644180460       -0.5749133198  MEMB      24              0.0000000000
      2538        24  SAPS      H20T            5.2196712786       18.0866405633       -0.4523399247  MEMB      24              0.0000000000
      2539        24  SAPS      C33             8.1990260217       19.9333880512       11.2265778615  MEMB      24              0.0000000000
      2540        24  SAPS      H3X             7.5397076322       20.7869527278       10.9600305486  MEMB      24              0.0000000000
      2541        24  SAPS      H3Y             7.6097304187       19.0264215547       10.9726814874  MEMB      24              0.0000000000
      2542        24  SAPS      C34             9.5648928941       20.0032019178       10.5447054639  MEMB      24              0.0000000000
      2543        24  SAPS      H4X            10.3756714161       19.4271701521       11.0398278539  MEMB      24              0.0000000000
      2544        24  SAPS      H4Y             9.8747468379       21.0701187955       10.5449383746  MEMB      24              0.0000000000
      2545        24  SAPS      C35             9.5688684746       19.5547358500        9.0747690997  MEMB      24              0.0000000000
      2546        24  SAPS      H5X             8.9281705334       20.2194595382        8.4567321742  MEMB      24              0.0000000000
      2547        24  SAPS      H5Y             9.1366788629       18.5319253379        9.0374620710  MEMB      24              0.0000000000
      2548        24  SAPS      C36            10.8773700858       19.5841742245        8.4283625675  MEMB      24              0.0000000000
      2549        24  SAPS      H6X            11.5697423403       18.9696500582        9.0426113931  MEMB      24              0.0000000000
      2550        24  SAPS      H6Y            11.2280118920       20.6360175086        8.4990522334  MEMB      24              0.0000000000
      2551        24  SAPS      C37            10.8483258761       18.9930694856        6.9818966452  MEMB      24              0.0000000000
      2552        24  SAPS      H7X            11.8901310908       18.8890653642        6.6102177994  MEMB      24              0.0000000000
      2553        24  SAPS      H7Y            10.4105814989       19.7859090820        6.3383857032  MEMB      24              0.0000000000
      2554        24  SAPS      C38            10.1731311732       17.6308112110        6.7277958010  MEMB      24              0.0000000000
      2555        24  SAPS      H8X             9.0872163843       17.6925644399        6.9542842324  MEMB      24              0.0000000000
      2556        24  SAPS      H8Y            10.6945852510       16.9135176544        7.3970466912  MEMB      24              0.0000000000
      2557        24  SAPS      C39            10.4870966381       17.0131307992        5.3285546393  MEMB      24              0.0000000000
      2558        24  SAPS      H9X            11.5723080125       17.1691294824        5.1488282014  MEMB      24              0.0000000000
      2559        24  SAPS      H9Y             9.9139905404       17.5063175078        4.5145300906  MEMB      24              0.0000000000
      2560        24  SAPS      C310           10.1716940948       15.5137436564        5.2966876775  MEMB      24              0.0000000000
      2561        24  SAPS      H10X           10.7457745595       14.8968692386        6.0207169141  MEMB      24              0.0000000000
      2562        24  SAPS      H10Y           10.4443176310       15.2509666781        4.2522046363  MEMB      24              0.0000000000
      2563        24  SAPS      C311            8.6756457078       15.1923986065        5.3966902134  MEMB      24              0.0000000000
      2564        24  SAPS      H11X            8.1215151099       16.1258421746        5.6332142830  MEMB      24              0.0000000000
      2565        24  SAPS      H11Y            8.4675161824       14.5792375295        6.2994843398  MEMB      24              0.0000000000
      2566        24  SAPS      C312            8.0532597359       14.5183851969        4.2199717276  MEMB      24              0.0000000000
      2567        24  SAPS      H12X            7.0326338005       14.3103870042        4.6064696069  MEMB      24              0.0000000000
      2568        24  SAPS      H12Y            8.6624831546       13.6576035130        3.8703690615  MEMB      24              0.0000000000
      2569        24  SAPS      C313            7.8380122429       15.4792761731        3.0071782455  MEMB      24              0.0000000000
      2570        24  SAPS      H13X            8.8275542491       15.9061028819        2.7370924311  MEMB      24              0.0000000000
      2571        24  SAPS      H13Y            7.3973272579       16.4003048484        3.4451559673  MEMB      24              0.0000000000
      2572        24  SAPS      C314            7.0075157410       15.1136769905        1.8306989625  MEMB      24              0.0000000000
      2573        24  SAPS      H14X            6.7597035244       16.0098180323        1.2225537396  MEMB      24              0.0000000000
      2574        24  SAPS      H14Y            6.0426781824       14.9315122299        2.3505313192  MEMB      24              0.0000000000
      2575        24  SAPS      C315            7.5454550896       13.8593591673        0.9997934721  MEMB      24              0.0000000000
      2576        24  SAPS      H15X            6.8430702955       13.5382449074        0.2011313153  MEMB      24              0.0000000000
      2577        24  SAPS      H15Y            7.6423273266       13.0539089349        1.7588634006  MEMB      24              0.0000000000
      2578        24  SAPS      C316            8.8768441768       13.9964184498        0.3215780027  MEMB      24              0.0000000000
      2579        24  SAPS      H16X            9.1835885995       12.9440872578        0.1403930742  MEMB      24              0.0000000000
      2580        24  SAPS      H16Y            9.6342200201       14.4475600931        0.9977254250  MEMB      24              0.0000000000
      2581        24  SAPS      C317            8.7821611918       14.6693755612       -1.1056074828  MEMB      24              0.0000000000
      2582        24  SAPS      H17X            8.0245011846       14.1608463592       -1.7393806035  MEMB      24              0.0000000000
      2583        24  SAPS      H17Y            9.7404479802       14.3754150605       -1.5847679904  MEMB      24              0.0000000000
      2584        24  SAPS      C318            8.5272467195       16.2105685587       -1.0394314175  MEMB      24              0.0000000000
      2585        24  SAPS      H18X            7.4453841109       16.4439776263       -0.9424042463  MEMB      24              0.0000000000
      2586        24  SAPS      H18Y            8.9364252847       16.6060939606       -1.9936079508  MEMB      24              0.0000000000
      2587        24  SAPS      H18Z            9.1126819058       16.6631384990       -0.2107169482  MEMB      24              0.0000000000
      2588        25  SAPS      N              12.8383926853       14.1577334193       20.0213270292  MEMB      25              0.0000000000
      2589        25  SAPS      HN1            12.8767607674       14.4364382837       19.0201020475  MEMB      25              0.0000000000
      2590        25  SAPS      HN2            11.9798128424       13.5911201850       20.1742653357  MEMB      25              0.0000000000
      2591        25  SAPS      HN3            12.6498776961       15.0319500569       20.5521823703  MEMB      25              0.0000000000
      2592        25  SAPS      C12            14.1292414588       13.4988769645       20.6102391226  MEMB      25              0.0000000000
      2593        25  SAPS      H12A           14.2756975334       13.7455108433       21.6514511243  MEMB      25              0.0000000000
      2594        25  SAPS      C13            14.0951968839       11.9877103718       20.6576002942  MEMB      25              0.0000000000
      2595        25  SAPS      O13A           13.1124835902       11.4095902707       20.0557907209  MEMB      25              0.0000000000
      2596        25  SAPS      O13B           14.9483050635       11.3360269122       21.3528078048  MEMB      25              0.0000000000
      2597        25  SAPS      C11            15.3339802704       14.0234399095       19.8050661047  MEMB      25              0.0000000000
      2598        25  SAPS      H11A           15.2321038882       15.1285424070       19.7531943288  MEMB      25              0.0000000000
      2599        25  SAPS      H11B           15.1320163051       13.6618320492       18.7741580752  MEMB      25              0.0000000000
      2600        25  SAPS      P              17.8584763741       14.2428393327       19.5039019760  MEMB      25              0.0000000000
      2601        25  SAPS      O13            17.3406359115       14.9721111281       18.2791227091  MEMB      25              0.0000000000
      2602        25  SAPS      O14            18.8904471613       14.8569537354       20.3969489775  MEMB      25              0.0000000000
      2603        25  SAPS      O12            16.6541071582       13.8089562978       20.3432989524  MEMB      25              0.0000000000
      2604        25  SAPS      O11            18.4992769053       12.9328548884       18.9738962986  MEMB      25              0.0000000000
      2605        25  SAPS      C1             17.6809572175       11.7877751860       18.6523614104  MEMB      25              0.0000000000
      2606        25  SAPS      HA             17.7841618741       10.9908021190       19.4195012848  MEMB      25              0.0000000000
      2607        25  SAPS      HB             16.5870833491       11.9819690401       18.6594167138  MEMB      25              0.0000000000
      2608        25  SAPS      C2             17.9430932448       11.2704072856       17.2476051690  MEMB      25              0.0000000000
      2609        25  SAPS      HS             18.9801776223       10.8740186841       17.2882579029  MEMB      25              0.0000000000
      2610        25  SAPS      O21            17.7934926274       12.4021376502       16.3550972483  MEMB      25              0.0000000000
      2611        25  SAPS      C21            18.0854658549       12.2237723881       15.1228895129  MEMB      25              0.0000000000
      2612        25  SAPS      O22            18.4095979749       11.2089787131       14.5504113179  MEMB      25              0.0000000000
      2613        25  SAPS      C22            17.9939918758       13.6367578093       14.4410093161  MEMB      25              0.0000000000
      2614        25  SAPS      H2R            17.0779169486       13.7276874657       13.8190288422  MEMB      25              0.0000000000
      2615        25  SAPS      H2S            17.9192866212       14.4911713594       15.1472087072  MEMB      25              0.0000000000
      2616        25  SAPS      C3             16.9437329116       10.0873956709       16.9856446874  MEMB      25              0.0000000000
      2617        25  SAPS      HX             16.9107392255        9.3592786442       17.8241424505  MEMB      25              0.0000000000
      2618        25  SAPS      HY             17.2938121203        9.5880206181       16.0569952504  MEMB      25              0.0000000000
      2619        25  SAPS      O31            15.5793684592       10.6335534548       16.8266254537  MEMB      25              0.0000000000
      2620        25  SAPS      C31            14.8017966006        9.7348745683       16.4643437309  MEMB      25              0.0000000000
      2621        25  SAPS      O32            15.0611262549        8.5427585113       16.3635614610  MEMB      25              0.0000000000
      2622        25  SAPS      C32            13.4838458380       10.3324412227       16.1370088988  MEMB      25              0.0000000000
      2623        25  SAPS      H2X            13.3173622303       11.2972461246       16.6621329337  MEMB      25              0.0000000000
      2624        25  SAPS      H2Y            12.7416262041        9.7164524035       16.6883605264  MEMB      25              0.0000000000
      2625        25  SAPS      C23            19.2579651715       13.9177742153       13.5867784816  MEMB      25              0.0000000000
      2626        25  SAPS      H3R            20.0676632117       13.8190398081       14.3410739309  MEMB      25              0.0000000000
      2627        25  SAPS      H3S            19.1742267305       14.9740260791       13.2526513331  MEMB      25              0.0000000000
      2628        25  SAPS      C24            19.5744115882       12.9643885544       12.3753097663  MEMB      25              0.0000000000
      2629        25  SAPS      H4R            19.8714394930       11.9332632372       12.6631917674  MEMB      25              0.0000000000
      2630        25  SAPS      H4S            20.5553151872       13.2550556960       11.9421097734  MEMB      25              0.0000000000
      2631        25  SAPS      C25            18.5004422888       12.8460062788       11.3073903669  MEMB      25              0.0000000000
      2632        25  SAPS      H5R            18.0190258481       13.7972008957       11.0363423536  MEMB      25              0.0000000000
      2633        25  SAPS      C26            17.8650847784       11.8116350431       10.7966399235  MEMB      25              0.0000000000
      2634        25  SAPS      H6R            17.0200674880       11.9766427804       10.1120095685  MEMB      25              0.0000000000
      2635        25  SAPS      C27            17.9866218472       10.2841488587       11.0506108970  MEMB      25              0.0000000000
      2636        25  SAPS      H7R            18.6909471664       10.0785640250       11.8848657342  MEMB      25              0.0000000000
      2637        25  SAPS      H7S            18.4605795371        9.7155690831       10.2221168172  MEMB      25              0.0000000000
      2638        25  SAPS      C28            16.6334476983        9.7428676345       11.4765141572  MEMB      25              0.0000000000
      2639        25  SAPS      H8R            16.4533593109        9.5992813753       12.5521307575  MEMB      25              0.0000000000
      2640        25  SAPS      C29            15.5789744078        9.4745906497       10.6181742362  MEMB      25              0.0000000000
      2641        25  SAPS      H9R            14.6471658625        9.0144650939       10.9787533489  MEMB      25              0.0000000000
      2642        25  SAPS      C210           15.6510170663        9.6944523241        9.1705087050  MEMB      25              0.0000000000
      2643        25  SAPS      H10R           15.9576403973       10.7150366866        8.8563262431  MEMB      25              0.0000000000
      2644        25  SAPS      H10S           14.6081839613        9.6783496719        8.7876762625  MEMB      25              0.0000000000
      2645        25  SAPS      C211           16.4335960775        8.6724001888        8.3900281495  MEMB      25              0.0000000000
      2646        25  SAPS      H11R           16.9990313846        8.0079818091        9.0599773963  MEMB      25              0.0000000000
      2647        25  SAPS      C212           16.4995189506        8.2760030000        7.1160900797  MEMB      25              0.0000000000
      2648        25  SAPS      H12R           17.2221048553        7.4828921367        6.8735098698  MEMB      25              0.0000000000
      2649        25  SAPS      C213           15.7508807611        8.8890502650        5.9905243614  MEMB      25              0.0000000000
      2650        25  SAPS      H13R           14.7260736702        9.2233331094        6.2594977417  MEMB      25              0.0000000000
      2651        25  SAPS      H13S           15.6950304007        8.1276568708        5.1833803308  MEMB      25              0.0000000000
      2652        25  SAPS      C214           16.4414871312       10.0918575317        5.5515943647  MEMB      25              0.0000000000
      2653        25  SAPS      H14R           16.6285267710       10.8038772186        6.3689343984  MEMB      25              0.0000000000
      2654        25  SAPS      C215           16.9293560552       10.4095950904        4.3723287981  MEMB      25              0.0000000000
      2655        25  SAPS      H15R           17.5958106684       11.2494638386        4.1264453364  MEMB      25              0.0000000000
      2656        25  SAPS      C216           16.7252270999        9.4439952759        3.2884238893  MEMB      25              0.0000000000
      2657        25  SAPS      H16R           16.7126094434        9.9296969920        2.2892970550  MEMB      25              0.0000000000
      2658        25  SAPS      H16S           15.9126755132        8.6909722531        3.3723127207  MEMB      25              0.0000000000
      2659        25  SAPS      C217           17.9839947348        8.5538425073        3.2420761852  MEMB      25              0.0000000000
      2660        25  SAPS      H17R           17.7840761099        7.6109448616        2.6895385953  MEMB      25              0.0000000000
      2661        25  SAPS      H17S           18.3339376812        8.2995042138        4.2653908256  MEMB      25              0.0000000000
      2662        25  SAPS      C218           19.2265151034        9.1510081845        2.5923237247  MEMB      25              0.0000000000
      2663        25  SAPS      H18R           19.6259085713        9.9530672042        3.2492175100  MEMB      25              0.0000000000
      2664        25  SAPS      H18S           19.0626791285        9.6881254992        1.6336872486  MEMB      25              0.0000000000
      2665        25  SAPS      C219           20.3462146140        8.0492583910        2.5237510184  MEMB      25              0.0000000000
      2666        25  SAPS      H19R           21.0672633500        8.5666480648        1.8553817453  MEMB      25              0.0000000000
      2667        25  SAPS      H19S           20.0608441823        7.1169509110        1.9911289235  MEMB      25              0.0000000000
      2668        25  SAPS      C220           21.1246000420        7.7373286676        3.7493663725  MEMB      25              0.0000000000
      2669        25  SAPS      H20R           20.6025060167        6.9294852082        4.3053585318  MEMB      25              0.0000000000
      2670        25  SAPS      H20S           21.0573239364        8.6076689304        4.4366083011  MEMB      25              0.0000000000
      2671        25  SAPS      H20T           22.1650488766        7.4278332797        3.5127231740  MEMB      25              0.0000000000
      2672        25  SAPS      C33            13.5016266622       10.5777277312       14.6463723298  MEMB      25              0.0000000000
      2673        25  SAPS      H3X            12.4647983324       10.9493856558       14.5008456090  MEMB      25              0.0000000000
      2674        25  SAPS      H3Y            13.7147669117        9.6122609690       14.1396512272  MEMB      25              0.0000000000
      2675        25  SAPS      C34            14.4882762876       11.6784514678       14.0920506597  MEMB      25              0.0000000000
      2676        25  SAPS      H4X            15.3891019188       11.0879985267       13.8196550644  MEMB      25              0.0000000000
      2677        25  SAPS      H4Y            14.7022796235       12.5673730812       14.7231940629  MEMB      25              0.0000000000
      2678        25  SAPS      C35            13.8904597458       12.2126320969       12.7592149781  MEMB      25              0.0000000000
      2679        25  SAPS      H5X            12.8538820186       12.5256183183       13.0079464724  MEMB      25              0.0000000000
      2680        25  SAPS      H5Y            13.7656205305       11.3449823074       12.0766314956  MEMB      25              0.0000000000
      2681        25  SAPS      C36            14.6451214943       13.4315091708       12.2328535982  MEMB      25              0.0000000000
      2682        25  SAPS      H6X            15.6828464582       13.0808576011       12.0471353565  MEMB      25              0.0000000000
      2683        25  SAPS      H6Y            14.6560260850       14.2309533292       13.0042752409  MEMB      25              0.0000000000
      2684        25  SAPS      C37            14.0815953864       14.0074966851       10.9450746675  MEMB      25              0.0000000000
      2685        25  SAPS      H7X            13.0138548968       14.2361825297       11.1499030471  MEMB      25              0.0000000000
      2686        25  SAPS      H7Y            13.9047788088       13.1626757430       10.2455505999  MEMB      25              0.0000000000
      2687        25  SAPS      C38            14.9153728427       15.2719628412       10.3796183143  MEMB      25              0.0000000000
      2688        25  SAPS      H8X            15.9975649894       15.0275968883       10.4384939810  MEMB      25              0.0000000000
      2689        25  SAPS      H8Y            14.8510135365       16.1069990058       11.1096148792  MEMB      25              0.0000000000
      2690        25  SAPS      C39            14.4999495553       15.9873767345        9.1116773349  MEMB      25              0.0000000000
      2691        25  SAPS      H9X            15.0233722968       16.9613653754        9.2198272322  MEMB      25              0.0000000000
      2692        25  SAPS      H9Y            13.4044851529       16.1660367713        9.1602517005  MEMB      25              0.0000000000
      2693        25  SAPS      C310           14.7784603704       15.2419286745        7.8456169405  MEMB      25              0.0000000000
      2694        25  SAPS      H10X           14.6496353152       15.9634325451        7.0106576655  MEMB      25              0.0000000000
      2695        25  SAPS      H10Y           13.8966222591       14.5704172531        7.7697548909  MEMB      25              0.0000000000
      2696        25  SAPS      C311           16.1153984808       14.4089217562        7.7189388678  MEMB      25              0.0000000000
      2697        25  SAPS      H11X           16.0598995537       13.8072090629        6.7866391258  MEMB      25              0.0000000000
      2698        25  SAPS      H11Y           16.1986239824       13.8168221601        8.6553218400  MEMB      25              0.0000000000
      2699        25  SAPS      C312           17.3394068075       15.4322976933        7.7330535441  MEMB      25              0.0000000000
      2700        25  SAPS      H12X           17.2747388012       16.0344547520        8.6644755779  MEMB      25              0.0000000000
      2701        25  SAPS      H12Y           17.3710028005       16.0442561675        6.8063233833  MEMB      25              0.0000000000
      2702        25  SAPS      C313           18.7353983131       14.6965211412        7.6581900099  MEMB      25              0.0000000000
      2703        25  SAPS      H13X           18.9376055704       14.1414278260        8.5990962779  MEMB      25              0.0000000000
      2704        25  SAPS      H13Y           19.4402487964       15.5389008191        7.4911477015  MEMB      25              0.0000000000
      2705        25  SAPS      C314           18.8566185389       13.6520453318        6.5480230566  MEMB      25              0.0000000000
      2706        25  SAPS      H14X           18.2066354127       12.7584699452        6.6636341163  MEMB      25              0.0000000000
      2707        25  SAPS      H14Y           19.9111641926       13.3040506323        6.5140533176  MEMB      25              0.0000000000
      2708        25  SAPS      C315           18.5846282922       14.1344871754        5.1312138092  MEMB      25              0.0000000000
      2709        25  SAPS      H15X           17.6490391162       14.7319195053        5.1766984773  MEMB      25              0.0000000000
      2710        25  SAPS      H15Y           18.5177189791       13.2635208087        4.4447290554  MEMB      25              0.0000000000
      2711        25  SAPS      C316           19.6645022424       15.0983957138        4.6040129826  MEMB      25              0.0000000000
      2712        25  SAPS      H16X           20.6647364978       14.6224664126        4.6897092965  MEMB      25              0.0000000000
      2713        25  SAPS      H16Y           19.8194256265       16.0043917704        5.2281049727  MEMB      25              0.0000000000
      2714        25  SAPS      C317           19.4016851883       15.5522092081        3.1524576758  MEMB      25              0.0000000000
      2715        25  SAPS      H17X           19.9804431504       16.4955984822        3.0556270505  MEMB      25              0.0000000000
      2716        25  SAPS      H17Y           18.3465807794       15.8752533874        3.0231594662  MEMB      25              0.0000000000
      2717        25  SAPS      C318           19.7661663471       14.5633820051        1.9842784361  MEMB      25              0.0000000000
      2718        25  SAPS      H18X           20.8430053089       14.2941915633        2.0319807365  MEMB      25              0.0000000000
      2719        25  SAPS      H18Y           19.4756173747       15.0752153039        1.0419791735  MEMB      25              0.0000000000
      2720        25  SAPS      H18Z           19.1040574794       13.6723098980        2.0281376907  MEMB      25              0.0000000000
      2721        26  SAPS      N              -9.0468267604      -15.3719909772       20.3086736295  MEMB      26              0.0000000000
      2722        26  SAPS      HN1            -8.6528778863      -15.0628580774       21.2201785753  MEMB      26              0.0000000000
      2723        26  SAPS      HN2            -8.3334474687      -15.3275390460       19.5532174757  MEMB      26              0.0000000000
      2724        26  SAPS      HN3            -9.9372878324      -14.9520929863       19.9734652585  MEMB      26              0.0000000000
      2725        26  SAPS      C12            -9.4028696916      -16.7463071992       20.5277556946  MEMB      26              0.0000000000
      2726        26  SAPS      H12A           -8.5510098957      -17.4084909518       20.4803476043  MEMB      26              0.0000000000
      2727        26  SAPS      C13           -10.0885264953      -16.9157726519       21.8938817024  MEMB      26              0.0000000000
      2728        26  SAPS      O13A          -10.5896354106      -16.0139397084       22.5551144433  MEMB      26              0.0000000000
      2729        26  SAPS      O13B          -10.0383290301      -18.0900699111       22.3523264026  MEMB      26              0.0000000000
      2730        26  SAPS      C11           -10.3953328426      -17.1494678608       19.3780597258  MEMB      26              0.0000000000
      2731        26  SAPS      H11A           -9.8537493781      -16.8708468572       18.4488779924  MEMB      26              0.0000000000
      2732        26  SAPS      H11B          -11.3484018319      -16.5846096834       19.4612210395  MEMB      26              0.0000000000
      2733        26  SAPS      P             -11.7824250771      -19.1612534068       18.6547672978  MEMB      26              0.0000000000
      2734        26  SAPS      O13           -11.5614086665      -20.6109906198       18.6293712505  MEMB      26              0.0000000000
      2735        26  SAPS      O14           -13.1296028944      -18.6558747447       19.1282493073  MEMB      26              0.0000000000
      2736        26  SAPS      O12           -10.6167490697      -18.4850659980       19.3780475178  MEMB      26              0.0000000000
      2737        26  SAPS      O11           -11.5564951650      -18.6945632203       17.1937530328  MEMB      26              0.0000000000
      2738        26  SAPS      C1            -12.1571231526      -17.5451459585       16.6271822432  MEMB      26              0.0000000000
      2739        26  SAPS      HA            -12.5255401090      -16.8278450579       17.3914264453  MEMB      26              0.0000000000
      2740        26  SAPS      HB            -11.3576372600      -17.0755151540       16.0151443347  MEMB      26              0.0000000000
      2741        26  SAPS      C2            -13.3646024426      -17.9567575694       15.7143420681  MEMB      26              0.0000000000
      2742        26  SAPS      HS            -14.0838733605      -18.5256542571       16.3414999419  MEMB      26              0.0000000000
      2743        26  SAPS      O21           -12.8362781816      -18.6978309147       14.5346953929  MEMB      26              0.0000000000
      2744        26  SAPS      C21           -13.8284129243      -19.4813834889       14.0027063627  MEMB      26              0.0000000000
      2745        26  SAPS      O22           -14.9380115977      -19.6617026318       14.4249948980  MEMB      26              0.0000000000
      2746        26  SAPS      C22           -13.3578953102      -19.9316855747       12.6428396930  MEMB      26              0.0000000000
      2747        26  SAPS      H2R           -13.1717087739      -19.0496343893       11.9935009612  MEMB      26              0.0000000000
      2748        26  SAPS      H2S           -12.5255951320      -20.6487371776       12.8084730739  MEMB      26              0.0000000000
      2749        26  SAPS      C3            -14.2235251283      -16.7366909688       15.2251611943  MEMB      26              0.0000000000
      2750        26  SAPS      HX            -14.5064458172      -16.2163745204       16.1651334638  MEMB      26              0.0000000000
      2751        26  SAPS      HY            -15.0278364006      -17.0471293173       14.5244241907  MEMB      26              0.0000000000
      2752        26  SAPS      O31           -13.3581688075      -15.8618380475       14.4844770094  MEMB      26              0.0000000000
      2753        26  SAPS      C31           -13.4873548798      -15.6891397597       13.0943620116  MEMB      26              0.0000000000
      2754        26  SAPS      O32           -14.2904430903      -16.2500820250       12.3962879967  MEMB      26              0.0000000000
      2755        26  SAPS      C32           -12.4268664009      -14.7065836795       12.5661387327  MEMB      26              0.0000000000
      2756        26  SAPS      H2X           -12.3065791674      -13.8477666203       13.2606062585  MEMB      26              0.0000000000
      2757        26  SAPS      H2Y           -12.6271592860      -14.1963261267       11.5997842231  MEMB      26              0.0000000000
      2758        26  SAPS      C23           -14.4506003751      -20.7049578786       11.9439914591  MEMB      26              0.0000000000
      2759        26  SAPS      H3R           -15.3790418384      -20.0950074282       11.9273202040  MEMB      26              0.0000000000
      2760        26  SAPS      H3S           -14.6670054701      -21.5444325945       12.6388097181  MEMB      26              0.0000000000
      2761        26  SAPS      C24           -14.2412605129      -21.2345487588       10.5408965595  MEMB      26              0.0000000000
      2762        26  SAPS      H4R           -14.8492599988      -22.1508994540       10.3829120973  MEMB      26              0.0000000000
      2763        26  SAPS      H4S           -13.2563448311      -21.7399886325       10.4471273287  MEMB      26              0.0000000000
      2764        26  SAPS      C25           -14.2220730672      -20.3440750842        9.3596228271  MEMB      26              0.0000000000
      2765        26  SAPS      H5R           -15.1176179365      -20.4113183814        8.7244246044  MEMB      26              0.0000000000
      2766        26  SAPS      C26           -13.1409542026      -19.6994714928        8.9597538110  MEMB      26              0.0000000000
      2767        26  SAPS      H6R           -13.2448951133      -19.1956377792        7.9874639965  MEMB      26              0.0000000000
      2768        26  SAPS      C27           -11.7512893597      -19.6471174814        9.5094654701  MEMB      26              0.0000000000
      2769        26  SAPS      H7R           -11.7763560507      -19.1089912569       10.4811210401  MEMB      26              0.0000000000
      2770        26  SAPS      H7S           -11.1648415490      -18.9140175396        8.9153581102  MEMB      26              0.0000000000
      2771        26  SAPS      C28           -10.8380553186      -20.8593270639        9.6096067341  MEMB      26              0.0000000000
      2772        26  SAPS      H8R           -10.6663858097      -21.2494046785       10.6236916256  MEMB      26              0.0000000000
      2773        26  SAPS      C29           -10.1830237630      -21.3994491959        8.5704357112  MEMB      26              0.0000000000
      2774        26  SAPS      H9R            -9.5035015524      -22.2592478091        8.6652831431  MEMB      26              0.0000000000
      2775        26  SAPS      C210          -10.2129373309      -20.9242633779        7.0968474547  MEMB      26              0.0000000000
      2776        26  SAPS      H10R           -9.3550782738      -20.2201748089        7.0452921914  MEMB      26              0.0000000000
      2777        26  SAPS      H10S          -11.1125496161      -20.3053488258        6.8919972912  MEMB      26              0.0000000000
      2778        26  SAPS      C211          -10.1029956567      -21.9965174635        5.9886674980  MEMB      26              0.0000000000
      2779        26  SAPS      H11R          -10.8569494040      -22.7757370791        6.1740616762  MEMB      26              0.0000000000
      2780        26  SAPS      C212           -9.3186786491      -21.9730377084        4.9370007382  MEMB      26              0.0000000000
      2781        26  SAPS      H12R           -9.4747714519      -22.7808429775        4.2068736205  MEMB      26              0.0000000000
      2782        26  SAPS      C213           -8.3552426898      -20.9257779737        4.5800714926  MEMB      26              0.0000000000
      2783        26  SAPS      H13R           -7.3518585356      -21.3865463226        4.4566463003  MEMB      26              0.0000000000
      2784        26  SAPS      H13S           -8.0996455228      -20.1707251230        5.3539491607  MEMB      26              0.0000000000
      2785        26  SAPS      C214           -8.7585718981      -20.0582983305        3.4085033827  MEMB      26              0.0000000000
      2786        26  SAPS      H14R           -9.1534156293      -19.0381560964        3.5242939241  MEMB      26              0.0000000000
      2787        26  SAPS      C215           -8.5317486141      -20.4334169342        2.1684969122  MEMB      26              0.0000000000
      2788        26  SAPS      H15R           -8.8832969477      -19.8018844643        1.3392925712  MEMB      26              0.0000000000
      2789        26  SAPS      C216           -7.8383277215      -21.6961103438        1.6666140605  MEMB      26              0.0000000000
      2790        26  SAPS      H16R           -8.4283396105      -22.6345297785        1.7412877185  MEMB      26              0.0000000000
      2791        26  SAPS      H16S           -7.0010557545      -21.8662835028        2.3767817523  MEMB      26              0.0000000000
      2792        26  SAPS      C217           -7.2487494841      -21.6575500538        0.2984908973  MEMB      26              0.0000000000
      2793        26  SAPS      H17R           -6.5110863941      -22.4679877939        0.1158289508  MEMB      26              0.0000000000
      2794        26  SAPS      H17S           -6.5275361667      -20.8166412529        0.2145572055  MEMB      26              0.0000000000
      2795        26  SAPS      C218           -8.1938209726      -21.6801846802       -0.9059661013  MEMB      26              0.0000000000
      2796        26  SAPS      H18R           -7.7174821729      -21.5960554254       -1.9061377055  MEMB      26              0.0000000000
      2797        26  SAPS      H18S           -8.9373206821      -20.8710376303       -0.7422265976  MEMB      26              0.0000000000
      2798        26  SAPS      C219           -9.1648393264      -22.9532683121       -0.8908532371  MEMB      26              0.0000000000
      2799        26  SAPS      H19R           -9.4515652803      -23.2531653377        0.1397623491  MEMB      26              0.0000000000
      2800        26  SAPS      H19S           -8.4177833302      -23.6998107890       -1.2356778747  MEMB      26              0.0000000000
      2801        26  SAPS      C220          -10.4354141206      -22.7764001213       -1.7385220920  MEMB      26              0.0000000000
      2802        26  SAPS      H20R          -11.1578754928      -22.0896686568       -1.2478387077  MEMB      26              0.0000000000
      2803        26  SAPS      H20S          -10.9403451474      -23.7658542020       -1.7571357470  MEMB      26              0.0000000000
      2804        26  SAPS      H20T          -10.2502302391      -22.4739077693       -2.7913883056  MEMB      26              0.0000000000
      2805        26  SAPS      C33           -11.0509120808      -15.4692787820       12.4709445888  MEMB      26              0.0000000000
      2806        26  SAPS      H3X           -10.4796207347      -15.3438993910       13.4155220839  MEMB      26              0.0000000000
      2807        26  SAPS      H3Y           -10.4476156082      -14.8927969190       11.7374440611  MEMB      26              0.0000000000
      2808        26  SAPS      C34           -11.0065873921      -16.9576411745       12.0376097837  MEMB      26              0.0000000000
      2809        26  SAPS      H4X           -11.3628958246      -17.0243444795       10.9874119968  MEMB      26              0.0000000000
      2810        26  SAPS      H4Y           -11.7782782591      -17.4367053323       12.6773843532  MEMB      26              0.0000000000
      2811        26  SAPS      C35            -9.6200783760      -17.6258595981       12.2485169790  MEMB      26              0.0000000000
      2812        26  SAPS      H5X            -9.5639200090      -18.7306603573       12.1456455094  MEMB      26              0.0000000000
      2813        26  SAPS      H5Y            -9.3080064230      -17.5463431493       13.3118181044  MEMB      26              0.0000000000
      2814        26  SAPS      C36            -8.4052734990      -17.0600497434       11.3784040304  MEMB      26              0.0000000000
      2815        26  SAPS      H6X            -7.4602805244      -17.5688920423       11.6654382866  MEMB      26              0.0000000000
      2816        26  SAPS      H6Y            -8.2430264822      -15.9609828003       11.3854060338  MEMB      26              0.0000000000
      2817        26  SAPS      C37            -8.6827675329      -17.5977425754        9.8897241809  MEMB      26              0.0000000000
      2818        26  SAPS      H7X            -9.7775309885      -17.4676794838        9.7522557879  MEMB      26              0.0000000000
      2819        26  SAPS      H7Y            -8.4183530397      -18.6763677132        9.9209303973  MEMB      26              0.0000000000
      2820        26  SAPS      C38            -7.8713245348      -16.8455278916        8.8336079050  MEMB      26              0.0000000000
      2821        26  SAPS      H8X            -6.7774323755      -16.9822395321        8.9715604206  MEMB      26              0.0000000000
      2822        26  SAPS      H8Y            -8.0552899024      -15.7510476812        8.8845100611  MEMB      26              0.0000000000
      2823        26  SAPS      C39            -8.2083107599      -17.2621463474        7.4286451102  MEMB      26              0.0000000000
      2824        26  SAPS      H9X            -8.2218768711      -18.3694352115        7.3389324262  MEMB      26              0.0000000000
      2825        26  SAPS      H9Y            -7.4701585302      -16.8685011190        6.6975537030  MEMB      26              0.0000000000
      2826        26  SAPS      C310           -9.5745825828      -16.8200859564        6.8783314710  MEMB      26              0.0000000000
      2827        26  SAPS      H10X           -9.8386825394      -15.7660624175        7.1098630486  MEMB      26              0.0000000000
      2828        26  SAPS      H10Y          -10.1605954791      -17.3916653015        7.6294688774  MEMB      26              0.0000000000
      2829        26  SAPS      C311          -10.0038425994      -17.4061498467        5.5136679281  MEMB      26              0.0000000000
      2830        26  SAPS      H11X           -9.8578967522      -18.4945533882        5.6821866521  MEMB      26              0.0000000000
      2831        26  SAPS      H11Y           -9.2564982969      -17.1049837394        4.7487517802  MEMB      26              0.0000000000
      2832        26  SAPS      C312          -11.5273227449      -17.2635083466        5.1555283023  MEMB      26              0.0000000000
      2833        26  SAPS      H12X          -12.0782383259      -17.4588286116        6.1003368356  MEMB      26              0.0000000000
      2834        26  SAPS      H12Y          -11.8762264852      -18.0579855668        4.4617038279  MEMB      26              0.0000000000
      2835        26  SAPS      C313          -11.9622473144      -15.9138919480        4.6195646000  MEMB      26              0.0000000000
      2836        26  SAPS      H13X          -11.5931327048      -15.1636433582        5.3511400350  MEMB      26              0.0000000000
      2837        26  SAPS      H13Y          -13.0496380976      -16.0463046491        4.4341762246  MEMB      26              0.0000000000
      2838        26  SAPS      C314          -11.2410848723      -15.4997946174        3.3035846700  MEMB      26              0.0000000000
      2839        26  SAPS      H14X          -10.1522403887      -15.6573248121        3.1489145888  MEMB      26              0.0000000000
      2840        26  SAPS      H14Y          -11.5221357910      -14.4252221797        3.2785887756  MEMB      26              0.0000000000
      2841        26  SAPS      C315          -11.9967932176      -16.0680575170        2.1609172167  MEMB      26              0.0000000000
      2842        26  SAPS      H15X          -13.0346401051      -15.7032671081        2.3162324763  MEMB      26              0.0000000000
      2843        26  SAPS      H15Y          -11.9302170002      -17.1701436633        2.0372447029  MEMB      26              0.0000000000
      2844        26  SAPS      C316          -11.5246557327      -15.3405086640        0.8758439959  MEMB      26              0.0000000000
      2845        26  SAPS      H16X          -10.4929436219      -14.9595102733        1.0331072710  MEMB      26              0.0000000000
      2846        26  SAPS      H16Y          -12.3167210742      -14.6277690087        0.5612731243  MEMB      26              0.0000000000
      2847        26  SAPS      C317          -11.6425737732      -16.3401997058       -0.3201418923  MEMB      26              0.0000000000
      2848        26  SAPS      H17X          -12.6750651120      -16.5124618955       -0.6924434860  MEMB      26              0.0000000000
      2849        26  SAPS      H17Y          -11.1107524773      -17.2778011586       -0.0510862427  MEMB      26              0.0000000000
      2850        26  SAPS      C318          -10.8796983054      -15.7211846423       -1.5546653839  MEMB      26              0.0000000000
      2851        26  SAPS      H18X          -11.4971989633      -14.9792973621       -2.1047726240  MEMB      26              0.0000000000
      2852        26  SAPS      H18Y          -10.7212734033      -16.5575597151       -2.2685970823  MEMB      26              0.0000000000
      2853        26  SAPS      H18Z           -9.9920705673      -15.1510323278       -1.2062920861  MEMB      26              0.0000000000
      2854        27  SAPE      N               1.0759254987       23.9348467343       21.9218956147  MEMB      27              0.0000000000
      2855        27  SAPE      HN1             0.0766604135       24.1962746127       21.8005502510  MEMB      27              0.0000000000
      2856        27  SAPE      HN2             1.1545711035       23.1286072825       22.5741170510  MEMB      27              0.0000000000
      2857        27  SAPE      HN3             1.6130324540       24.7318422342       22.3192798668  MEMB      27              0.0000000000
      2858        27  SAPE      C12             1.7211124561       23.6360178877       20.6452812664  MEMB      27              0.0000000000
      2859        27  SAPE      H12A            2.6141556343       22.9937635012       20.8011792729  MEMB      27              0.0000000000
      2860        27  SAPE      H12B            2.0364200974       24.5909408896       20.1730272378  MEMB      27              0.0000000000
      2861        27  SAPE      C11             0.6147519584       22.9752691665       19.6942072572  MEMB      27              0.0000000000
      2862        27  SAPE      H11A            0.8013126135       23.0604442684       18.6023000268  MEMB      27              0.0000000000
      2863        27  SAPE      H11B           -0.2597937463       23.6549132235       19.7812404351  MEMB      27              0.0000000000
      2864        27  SAPE      P               1.2095232810       20.5044424972       19.5703325095  MEMB      27              0.0000000000
      2865        27  SAPE      O13             2.5950055144       20.6576362557       20.1012627462  MEMB      27              0.0000000000
      2866        27  SAPE      O14             0.4503011725       19.2886195153       19.8478619699  MEMB      27              0.0000000000
      2867        27  SAPE      O12             0.3711895784       21.7412530747       20.2214143855  MEMB      27              0.0000000000
      2868        27  SAPE      O11             1.2412898828       20.8324580417       17.9977442207  MEMB      27              0.0000000000
      2869        27  SAPE      C1             -0.0313339587       20.9623653150       17.3320780344  MEMB      27              0.0000000000
      2870        27  SAPE      HA             -0.8921758301       20.8529388820       18.0258344506  MEMB      27              0.0000000000
      2871        27  SAPE      HB              0.0411875366       21.9040493977       16.7470201563  MEMB      27              0.0000000000
      2872        27  SAPE      C2             -0.1768995441       19.8462978865       16.2801686435  MEMB      27              0.0000000000
      2873        27  SAPE      HS             -0.7728294916       19.0023891405       16.6888328740  MEMB      27              0.0000000000
      2874        27  SAPE      O21             1.1471794080       19.4536206485       15.8861532687  MEMB      27              0.0000000000
      2875        27  SAPE      C21             1.4389266400       18.3337871841       15.3296975027  MEMB      27              0.0000000000
      2876        27  SAPE      O22             0.7124226032       17.3288431712       15.2927180682  MEMB      27              0.0000000000
      2877        27  SAPE      C22             2.8698880958       18.3415255359       14.7996086296  MEMB      27              0.0000000000
      2878        27  SAPE      H2R             3.6004149341       18.0380528957       15.5797082483  MEMB      27              0.0000000000
      2879        27  SAPE      H2S             2.8995116674       17.5177652810       14.0547173894  MEMB      27              0.0000000000
      2880        27  SAPE      C3             -0.9725810661       20.3479408387       15.0754528601  MEMB      27              0.0000000000
      2881        27  SAPE      HX             -0.2327303912       20.9077493388       14.4642601888  MEMB      27              0.0000000000
      2882        27  SAPE      HY             -1.7824592506       20.9501516350       15.5399528294  MEMB      27              0.0000000000
      2883        27  SAPE      O31            -1.6478490691       19.2458492426       14.4918854020  MEMB      27              0.0000000000
      2884        27  SAPE      C31            -1.8047591187       19.2908871334       13.1416576581  MEMB      27              0.0000000000
      2885        27  SAPE      O32            -1.5569744372       20.2316785832       12.3910678008  MEMB      27              0.0000000000
      2886        27  SAPE      C32            -2.4972475571       17.9964507126       12.6909377254  MEMB      27              0.0000000000
      2887        27  SAPE      H2X            -3.0998021516       18.2334565878       11.7881212786  MEMB      27              0.0000000000
      2888        27  SAPE      H2Y            -3.1138990292       17.6564527168       13.5502769297  MEMB      27              0.0000000000
      2889        27  SAPE      C23             3.3945113710       19.6774128300       14.3014017474  MEMB      27              0.0000000000
      2890        27  SAPE      H3R             3.4903302175       20.3644349472       15.1692384644  MEMB      27              0.0000000000
      2891        27  SAPE      H3S             2.6377333622       20.2102158194       13.6868050607  MEMB      27              0.0000000000
      2892        27  SAPE      C24             4.6547065707       19.6284659983       13.5137761409  MEMB      27              0.0000000000
      2893        27  SAPE      H4R             5.4775978375       19.2248614644       14.1416888908  MEMB      27              0.0000000000
      2894        27  SAPE      H4S             4.9414005545       20.6910284416       13.3618265140  MEMB      27              0.0000000000
      2895        27  SAPE      C25             4.5701646898       18.9052784305       12.2009458250  MEMB      27              0.0000000000
      2896        27  SAPE      H5R             4.4035528193       17.8203294541       12.2725461632  MEMB      27              0.0000000000
      2897        27  SAPE      C26             4.5661187112       19.4544992297       10.9626006895  MEMB      27              0.0000000000
      2898        27  SAPE      H6R             4.5266835828       18.7642262608       10.1070492265  MEMB      27              0.0000000000
      2899        27  SAPE      C27             4.6396672629       20.8738423731       10.5171072490  MEMB      27              0.0000000000
      2900        27  SAPE      H7R             5.4055371582       21.3215219531       11.1859474610  MEMB      27              0.0000000000
      2901        27  SAPE      H7S             3.6538969154       21.3227550256       10.7642007912  MEMB      27              0.0000000000
      2902        27  SAPE      C28             5.0116526558       21.2211069646        9.0993756886  MEMB      27              0.0000000000
      2903        27  SAPE      H8R             6.0520523537       21.5749272631        9.0505952368  MEMB      27              0.0000000000
      2904        27  SAPE      C29             4.3153310883       21.0951354161        7.9599451386  MEMB      27              0.0000000000
      2905        27  SAPE      H9R             4.8195853321       21.4738807504        7.0586791404  MEMB      27              0.0000000000
      2906        27  SAPE      C210            2.8811561690       20.5673458315        7.7780323651  MEMB      27              0.0000000000
      2907        27  SAPE      H10R            2.4945986573       20.1536593802        8.7339385523  MEMB      27              0.0000000000
      2908        27  SAPE      H10S            2.8420404648       19.7061485522        7.0772249066  MEMB      27              0.0000000000
      2909        27  SAPE      C211            2.0039858518       21.6028231446        7.0615450436  MEMB      27              0.0000000000
      2910        27  SAPE      H11R            2.6172010752       22.2341829557        6.4017324560  MEMB      27              0.0000000000
      2911        27  SAPE      C212            0.6437834191       21.8573694603        7.1598110426  MEMB      27              0.0000000000
      2912        27  SAPE      H12R            0.3756282763       22.7631154165        6.5961468864  MEMB      27              0.0000000000
      2913        27  SAPE      C213           -0.3964024439       21.1943762258        8.0493252254  MEMB      27              0.0000000000
      2914        27  SAPE      H13R           -0.2097970936       21.4249010560        9.1200067365  MEMB      27              0.0000000000
      2915        27  SAPE      H13S           -0.2639847566       20.0969267697        7.9380104717  MEMB      27              0.0000000000
      2916        27  SAPE      C214           -1.7321972472       21.7860306794        7.5951611301  MEMB      27              0.0000000000
      2917        27  SAPE      H14R           -1.8595995890       22.8590279507        7.8011847877  MEMB      27              0.0000000000
      2918        27  SAPE      C215           -2.8023537313       21.1553960364        7.1579515656  MEMB      27              0.0000000000
      2919        27  SAPE      H15R           -3.7077553979       21.7452041048        6.9521016027  MEMB      27              0.0000000000
      2920        27  SAPE      C216           -2.8742673701       19.6429494139        7.0394289456  MEMB      27              0.0000000000
      2921        27  SAPE      H16R           -3.6346009488       19.3094176667        7.7776502787  MEMB      27              0.0000000000
      2922        27  SAPE      H16S           -1.8912226909       19.1925138681        7.2944815039  MEMB      27              0.0000000000
      2923        27  SAPE      C217           -3.1157016666       19.1216674077        5.6257559612  MEMB      27              0.0000000000
      2924        27  SAPE      H17R           -4.0208707431       19.4582262596        5.0764671868  MEMB      27              0.0000000000
      2925        27  SAPE      H17S           -3.1816490927       18.0126506693        5.6184149669  MEMB      27              0.0000000000
      2926        27  SAPE      C218           -1.9490300295       19.5382644035        4.6524728576  MEMB      27              0.0000000000
      2927        27  SAPE      H18R           -0.9532938043       19.2084181871        5.0185767656  MEMB      27              0.0000000000
      2928        27  SAPE      H18S           -1.9443942230       20.6466140605        4.5759187773  MEMB      27              0.0000000000
      2929        27  SAPE      C219           -2.1447902913       19.0456896016        3.2224791553  MEMB      27              0.0000000000
      2930        27  SAPE      H19R           -2.5064536155       17.9992265372        3.3143266414  MEMB      27              0.0000000000
      2931        27  SAPE      H19S           -1.1121135277       19.1032239336        2.8167826333  MEMB      27              0.0000000000
      2932        27  SAPE      C220           -3.0448808243       19.9857946010        2.3864519607  MEMB      27              0.0000000000
      2933        27  SAPE      H20R           -2.5037342704       20.9013999771        2.0652848540  MEMB      27              0.0000000000
      2934        27  SAPE      H20S           -3.9775974247       20.2358496513        2.9358472025  MEMB      27              0.0000000000
      2935        27  SAPE      H20T           -3.2505302493       19.5062120469        1.4056208099  MEMB      27              0.0000000000
      2936        27  SAPE      C33            -1.3815269143       16.9962533800       12.2526742004  MEMB      27              0.0000000000
      2937        27  SAPE      H3X            -1.8399491502       15.9945365743       12.1086822760  MEMB      27              0.0000000000
      2938        27  SAPE      H3Y            -0.6133766746       16.8971761076       13.0491976251  MEMB      27              0.0000000000
      2939        27  SAPE      C34            -0.7300886920       17.3990128629       10.8601182140  MEMB      27              0.0000000000
      2940        27  SAPE      H4X            -0.3552511524       18.4431111874       10.7994869191  MEMB      27              0.0000000000
      2941        27  SAPE      H4Y            -1.5740889004       17.3093536633       10.1432183713  MEMB      27              0.0000000000
      2942        27  SAPE      C35             0.3347626871       16.4671186259       10.3287669559  MEMB      27              0.0000000000
      2943        27  SAPE      H5X            -0.0302701409       15.4404976868       10.5458420521  MEMB      27              0.0000000000
      2944        27  SAPE      H5Y             1.3222329413       16.5690082574       10.8276079851  MEMB      27              0.0000000000
      2945        27  SAPE      C36             0.6294074148       16.6269715060        8.8212576616  MEMB      27              0.0000000000
      2946        27  SAPE      H6X             1.1443718368       17.6106869483        8.8591571590  MEMB      27              0.0000000000
      2947        27  SAPE      H6Y            -0.3072294465       16.7208787462        8.2311609859  MEMB      27              0.0000000000
      2948        27  SAPE      C37             1.5025602490       15.5623086505        8.1734601952  MEMB      27              0.0000000000
      2949        27  SAPE      H7X             0.9850980578       14.6907974844        7.7184638314  MEMB      27              0.0000000000
      2950        27  SAPE      H7Y             1.9747443099       15.0953750003        9.0641542452  MEMB      27              0.0000000000
      2951        27  SAPE      C38             2.5192993691       16.0558517624        7.1851439817  MEMB      27              0.0000000000
      2952        27  SAPE      H8X             3.2700963934       15.3597288439        6.7538234559  MEMB      27              0.0000000000
      2953        27  SAPE      H8Y             3.0395563963       16.7645354832        7.8644236442  MEMB      27              0.0000000000
      2954        27  SAPE      C39             1.9151679819       16.6703808104        6.0001741896  MEMB      27              0.0000000000
      2955        27  SAPE      H9X             1.1398114488       17.4478552506        6.1695178331  MEMB      27              0.0000000000
      2956        27  SAPE      H9Y             1.4086857591       15.8720264247        5.4167125944  MEMB      27              0.0000000000
      2957        27  SAPE      C310            2.9699220845       17.3506550517        5.0597800108  MEMB      27              0.0000000000
      2958        27  SAPE      H10X            3.7364596030       16.5822467858        4.8225249846  MEMB      27              0.0000000000
      2959        27  SAPE      H10Y            3.5485816831       18.1990090877        5.4837724073  MEMB      27              0.0000000000
      2960        27  SAPE      C311            2.3555181767       17.9076930974        3.7455301381  MEMB      27              0.0000000000
      2961        27  SAPE      H11X            1.4062317272       18.4191132447        4.0131610331  MEMB      27              0.0000000000
      2962        27  SAPE      H11Y            2.2602500411       17.1066631152        2.9815956616  MEMB      27              0.0000000000
      2963        27  SAPE      C312            3.2854534574       18.9591383616        3.1556599888  MEMB      27              0.0000000000
      2964        27  SAPE      H12X            4.1134761331       18.4722570981        2.5974070678  MEMB      27              0.0000000000
      2965        27  SAPE      H12Y            3.5744190862       19.4450412813        4.1120689186  MEMB      27              0.0000000000
      2966        27  SAPE      C313            2.5969345881       19.7890206368        2.0419916545  MEMB      27              0.0000000000
      2967        27  SAPE      H13X            2.3381530511       18.9797920911        1.3260992561  MEMB      27              0.0000000000
      2968        27  SAPE      H13Y            3.3542474722       20.4332853149        1.5462893816  MEMB      27              0.0000000000
      2969        27  SAPE      C314            1.4333277996       20.7313181133        2.4601009764  MEMB      27              0.0000000000
      2970        27  SAPE      H14X            1.7260314061       21.5957771512        3.0936276483  MEMB      27              0.0000000000
      2971        27  SAPE      H14Y            0.7151104445       20.0217435672        2.9237694379  MEMB      27              0.0000000000
      2972        27  SAPE      C315            0.7251114371       21.3099809440        1.2067591164  MEMB      27              0.0000000000
      2973        27  SAPE      H15X            1.3050799926       22.1295053691        0.7310103365  MEMB      27              0.0000000000
      2974        27  SAPE      H15Y           -0.2774815857       21.6918234645        1.4954188441  MEMB      27              0.0000000000
      2975        27  SAPE      C316            0.5792611458       20.2608364334        0.0997445668  MEMB      27              0.0000000000
      2976        27  SAPE      H16X            0.0542404515       19.3396762073        0.4316139403  MEMB      27              0.0000000000
      2977        27  SAPE      H16Y            1.5618935667       19.9902552812       -0.3424562687  MEMB      27              0.0000000000
      2978        27  SAPE      C317           -0.3406649783       20.8856266438       -1.0510015000  MEMB      27              0.0000000000
      2979        27  SAPE      H17X           -1.2024616279       21.4125953470       -0.5884732907  MEMB      27              0.0000000000
      2980        27  SAPE      H17Y           -0.8213736439       20.0984558287       -1.6703577950  MEMB      27              0.0000000000
      2981        27  SAPE      C318            0.4099355305       21.9366186720       -1.8714107336  MEMB      27              0.0000000000
      2982        27  SAPE      H18X            1.3557851449       21.4329888130       -2.1647469819  MEMB      27              0.0000000000
      2983        27  SAPE      H18Y            0.8923724039       22.7585286934       -1.3004113567  MEMB      27              0.0000000000
      2984        27  SAPE      H18Z           -0.0594227757       22.4393150116       -2.7439464627  MEMB      27              0.0000000000
      2985        28  SAPE      N             -17.6464591730      -15.5065772953       18.4551214842  MEMB      28              0.0000000000
      2986        28  SAPE      HN1           -18.2709081457      -15.2835586024       17.6539184375  MEMB      28              0.0000000000
      2987        28  SAPE      HN2           -16.8195834675      -14.8880516745       18.5788250472  MEMB      28              0.0000000000
      2988        28  SAPE      HN3           -17.3318316711      -16.4707599675       18.2249879990  MEMB      28              0.0000000000
      2989        28  SAPE      C12           -18.4636038267      -15.5284340036       19.7448314797  MEMB      28              0.0000000000
      2990        28  SAPE      H12A          -17.7413392748      -15.7097950325       20.5693088870  MEMB      28              0.0000000000
      2991        28  SAPE      H12B          -19.2920037658      -16.2643474684       19.6641707032  MEMB      28              0.0000000000
      2992        28  SAPE      C11           -19.0339163751      -14.0635167742       20.0912604589  MEMB      28              0.0000000000
      2993        28  SAPE      H11A          -20.0218232841      -14.1469233933       20.5926626855  MEMB      28              0.0000000000
      2994        28  SAPE      H11B          -19.2593766752      -13.5164691530       19.1509267011  MEMB      28              0.0000000000
      2995        28  SAPE      P             -17.0433876401      -12.3794848089       20.3153500329  MEMB      28              0.0000000000
      2996        28  SAPE      O13           -16.3935669667      -11.8826787327       21.4860339337  MEMB      28              0.0000000000
      2997        28  SAPE      O14           -16.1538600162      -13.1107636385       19.4314227701  MEMB      28              0.0000000000
      2998        28  SAPE      O12           -18.2017517373      -13.2163478648       20.8956992132  MEMB      28              0.0000000000
      2999        28  SAPE      O11           -17.6592558577      -11.2229760824       19.5802806510  MEMB      28              0.0000000000
      3000        28  SAPE      C1            -18.7067623626      -10.4243920022       20.1682183490  MEMB      28              0.0000000000
      3001        28  SAPE      HA            -19.6248912927      -10.9386902348       20.5243890686  MEMB      28              0.0000000000
      3002        28  SAPE      HB            -18.4309290148       -9.8818493735       21.0976721856  MEMB      28              0.0000000000
      3003        28  SAPE      C2            -19.0539931559       -9.3599125759       19.1568697279  MEMB      28              0.0000000000
      3004        28  SAPE      HS            -19.8580702435       -8.6514269891       19.4498360574  MEMB      28              0.0000000000
      3005        28  SAPE      O21           -19.3404621946       -9.9679758558       17.8987183381  MEMB      28              0.0000000000
      3006        28  SAPE      C21           -20.2513835455      -10.9321462117       17.7474765962  MEMB      28              0.0000000000
      3007        28  SAPE      O22           -21.1008839299      -11.2994102136       18.5498159177  MEMB      28              0.0000000000
      3008        28  SAPE      C22           -20.1005109606      -11.5010300267       16.3544397092  MEMB      28              0.0000000000
      3009        28  SAPE      H2R           -21.0919239448      -11.7714361092       15.9321817021  MEMB      28              0.0000000000
      3010        28  SAPE      H2S           -19.6526891253      -10.7833038211       15.6342692964  MEMB      28              0.0000000000
      3011        28  SAPE      C3            -17.8973041341       -8.3419325848       18.8937780952  MEMB      28              0.0000000000
      3012        28  SAPE      HX            -17.4223009085       -7.9558745765       19.8209523836  MEMB      28              0.0000000000
      3013        28  SAPE      HY            -18.3713163421       -7.5201149950       18.3156353976  MEMB      28              0.0000000000
      3014        28  SAPE      O31           -16.7084927691       -8.9275660489       18.2367892431  MEMB      28              0.0000000000
      3015        28  SAPE      C31           -16.8019843837       -9.1943047158       16.9021216390  MEMB      28              0.0000000000
      3016        28  SAPE      O32           -17.6193580624       -8.7291879404       16.1584109894  MEMB      28              0.0000000000
      3017        28  SAPE      C32           -15.5589238838      -10.0550346880       16.5241257945  MEMB      28              0.0000000000
      3018        28  SAPE      H2X           -15.7571038378      -11.1016757789       16.8397016916  MEMB      28              0.0000000000
      3019        28  SAPE      H2Y           -14.6394922838       -9.7997055438       17.0931367579  MEMB      28              0.0000000000
      3020        28  SAPE      C23           -19.1860358304      -12.7262539322       16.3681236869  MEMB      28              0.0000000000
      3021        28  SAPE      H3R           -19.5664494785      -13.5154069456       17.0513835202  MEMB      28              0.0000000000
      3022        28  SAPE      H3S           -18.1517140132      -12.4217101309       16.6359902681  MEMB      28              0.0000000000
      3023        28  SAPE      C24           -18.9137070143      -13.2449419489       14.8979348912  MEMB      28              0.0000000000
      3024        28  SAPE      H4R           -18.0339925460      -13.9206974727       14.8364697940  MEMB      28              0.0000000000
      3025        28  SAPE      H4S           -18.3888369256      -12.3773609239       14.4439135477  MEMB      28              0.0000000000
      3026        28  SAPE      C25           -20.0761312966      -13.7429771614       14.0614077286  MEMB      28              0.0000000000
      3027        28  SAPE      H5R           -20.4587544931      -14.7083895355       14.4241450084  MEMB      28              0.0000000000
      3028        28  SAPE      C26           -20.7234275563      -13.1152089849       13.0204548954  MEMB      28              0.0000000000
      3029        28  SAPE      H6R           -21.6407486448      -13.5705006743       12.6189185057  MEMB      28              0.0000000000
      3030        28  SAPE      C27           -20.4042263921      -11.7133653443       12.4872954620  MEMB      28              0.0000000000
      3031        28  SAPE      H7R           -19.6408369382      -11.2012275750       13.1112130119  MEMB      28              0.0000000000
      3032        28  SAPE      H7S           -21.2855528093      -11.0500055840       12.6197275320  MEMB      28              0.0000000000
      3033        28  SAPE      C28           -20.0364953267      -11.6950938128       11.0247208792  MEMB      28              0.0000000000
      3034        28  SAPE      H8R           -19.9054686846      -12.6925439989       10.5798324920  MEMB      28              0.0000000000
      3035        28  SAPE      C29           -19.7576548989      -10.6204250430       10.3391853242  MEMB      28              0.0000000000
      3036        28  SAPE      H9R           -19.4196382516      -10.5765133006        9.2933282149  MEMB      28              0.0000000000
      3037        28  SAPE      C210          -19.7415635376       -9.3074793284       11.0256143591  MEMB      28              0.0000000000
      3038        28  SAPE      H10R          -20.7238832733       -9.1609328653       11.5235033615  MEMB      28              0.0000000000
      3039        28  SAPE      H10S          -19.6054853840       -8.4809620565       10.2957701895  MEMB      28              0.0000000000
      3040        28  SAPE      C211          -18.7108378298       -8.8874026886       11.9372377993  MEMB      28              0.0000000000
      3041        28  SAPE      H11R          -19.1636138838       -8.6640333576       12.9145295319  MEMB      28              0.0000000000
      3042        28  SAPE      C212          -17.3053938271       -8.9396134345       11.8084510136  MEMB      28              0.0000000000
      3043        28  SAPE      H12R          -16.7297932406       -8.5475508589       12.6599030103  MEMB      28              0.0000000000
      3044        28  SAPE      C213          -16.4481472925       -9.4558253231       10.7014225311  MEMB      28              0.0000000000
      3045        28  SAPE      H13R          -16.8157245064      -10.3644946120       10.1784234403  MEMB      28              0.0000000000
      3046        28  SAPE      H13S          -15.5253710529       -9.6996419018       11.2700684530  MEMB      28              0.0000000000
      3047        28  SAPE      C214          -16.1580423181       -8.2865054776        9.7857932181  MEMB      28              0.0000000000
      3048        28  SAPE      H14R          -15.7450783999       -7.3608978593       10.2132403256  MEMB      28              0.0000000000
      3049        28  SAPE      C215          -16.2652118636       -8.2713951200        8.4447333038  MEMB      28              0.0000000000
      3050        28  SAPE      H15R          -16.0408714086       -7.3062070820        7.9671521715  MEMB      28              0.0000000000
      3051        28  SAPE      C216          -16.6896411369       -9.3850547210        7.5629860986  MEMB      28              0.0000000000
      3052        28  SAPE      H16R          -16.9571662641      -10.2757752494        8.1707431569  MEMB      28              0.0000000000
      3053        28  SAPE      H16S          -15.9423548870       -9.6157433348        6.7738937390  MEMB      28              0.0000000000
      3054        28  SAPE      C217          -17.9687923985       -9.0313239066        6.7255803388  MEMB      28              0.0000000000
      3055        28  SAPE      H17R          -17.8434991219       -8.1060028533        6.1235802855  MEMB      28              0.0000000000
      3056        28  SAPE      H17S          -18.9165091320       -9.0771138130        7.3035571619  MEMB      28              0.0000000000
      3057        28  SAPE      C218          -18.2034907890      -10.0481717393        5.6008693794  MEMB      28              0.0000000000
      3058        28  SAPE      H18R          -18.4677166438      -11.0438944337        6.0168521564  MEMB      28              0.0000000000
      3059        28  SAPE      H18S          -17.2554677374      -10.0864360974        5.0228473628  MEMB      28              0.0000000000
      3060        28  SAPE      C219          -19.4637404100       -9.6897560261        4.7364071784  MEMB      28              0.0000000000
      3061        28  SAPE      H19R          -19.2300696047       -8.6912726292        4.3089154463  MEMB      28              0.0000000000
      3062        28  SAPE      H19S          -20.3860261537       -9.5907061198        5.3478798782  MEMB      28              0.0000000000
      3063        28  SAPE      C220          -19.7454128519      -10.7118978970        3.5817790162  MEMB      28              0.0000000000
      3064        28  SAPE      H20R          -18.8747698415      -10.6355481138        2.8958699841  MEMB      28              0.0000000000
      3065        28  SAPE      H20S          -20.5978167225      -10.4487397329        2.9196033512  MEMB      28              0.0000000000
      3066        28  SAPE      H20T          -19.9351744190      -11.7352264814        3.9705083326  MEMB      28              0.0000000000
      3067        28  SAPE      C33           -15.2629297747      -10.0693712229       14.9850406997  MEMB      28              0.0000000000
      3068        28  SAPE      H3X           -15.0608040005       -9.0955892660       14.4898488169  MEMB      28              0.0000000000
      3069        28  SAPE      H3Y           -16.1263541814      -10.4764210390       14.4165963127  MEMB      28              0.0000000000
      3070        28  SAPE      C34           -13.8661014682      -10.7341428547       14.6562391089  MEMB      28              0.0000000000
      3071        28  SAPE      H4X           -12.9835647651      -10.3583182217       15.2167797683  MEMB      28              0.0000000000
      3072        28  SAPE      H4Y           -13.5981552276      -10.5456049309       13.5946464172  MEMB      28              0.0000000000
      3073        28  SAPE      C35           -13.8183034423      -12.2699742615       14.9707362771  MEMB      28              0.0000000000
      3074        28  SAPE      H5X           -13.9396484028      -12.4684161250       16.0571145583  MEMB      28              0.0000000000
      3075        28  SAPE      H5Y           -12.8243166018      -12.6418123032       14.6420302010  MEMB      28              0.0000000000
      3076        28  SAPE      C36           -14.8527694370      -13.2116388609       14.2502715816  MEMB      28              0.0000000000
      3077        28  SAPE      H6X           -15.8664101623      -12.8644783416       14.5440964771  MEMB      28              0.0000000000
      3078        28  SAPE      H6Y           -14.6688842974      -14.2101497819       14.7013626135  MEMB      28              0.0000000000
      3079        28  SAPE      C37           -14.6295918394      -13.3185668150       12.7165167862  MEMB      28              0.0000000000
      3080        28  SAPE      H7X           -13.6295773580      -13.8013955744       12.6823336830  MEMB      28              0.0000000000
      3081        28  SAPE      H7Y           -14.6443397089      -12.3180659752       12.2337104539  MEMB      28              0.0000000000
      3082        28  SAPE      C38           -15.4706330650      -14.2720433544       11.8181039104  MEMB      28              0.0000000000
      3083        28  SAPE      H8X           -15.6031712228      -15.2264585955       12.3711373350  MEMB      28              0.0000000000
      3084        28  SAPE      H8Y           -14.8780647332      -14.4972055593       10.9056969589  MEMB      28              0.0000000000
      3085        28  SAPE      C39           -16.7958216486      -13.5640531346       11.3372080167  MEMB      28              0.0000000000
      3086        28  SAPE      H9X           -16.5813547302      -12.4924339219       11.1373150696  MEMB      28              0.0000000000
      3087        28  SAPE      H9Y           -17.5789923685      -13.7269821408       12.1081935600  MEMB      28              0.0000000000
      3088        28  SAPE      C310          -17.4035143527      -14.2358846783       10.0675062771  MEMB      28              0.0000000000
      3089        28  SAPE      H10X          -18.4476143072      -14.5442282135       10.2890929417  MEMB      28              0.0000000000
      3090        28  SAPE      H10Y          -16.8243211956      -15.1090326303        9.6980892766  MEMB      28              0.0000000000
      3091        28  SAPE      C311          -17.5761230330      -13.1948979103        8.9307908117  MEMB      28              0.0000000000
      3092        28  SAPE      H11X          -16.6351840561      -13.1286891780        8.3437892279  MEMB      28              0.0000000000
      3093        28  SAPE      H11Y          -17.8235900084      -12.2379312150        9.4380340910  MEMB      28              0.0000000000
      3094        28  SAPE      C312          -18.6221324294      -13.6060803281        7.9036659059  MEMB      28              0.0000000000
      3095        28  SAPE      H12X          -18.5607409098      -12.8142013764        7.1268260397  MEMB      28              0.0000000000
      3096        28  SAPE      H12Y          -19.6586142003      -13.6050512499        8.3036976986  MEMB      28              0.0000000000
      3097        28  SAPE      C313          -18.2974775257      -14.8056507402        7.1370074745  MEMB      28              0.0000000000
      3098        28  SAPE      H13X          -18.6696015234      -15.8097402407        7.4330640101  MEMB      28              0.0000000000
      3099        28  SAPE      H13Y          -17.2096176033      -14.8281679889        6.9125639229  MEMB      28              0.0000000000
      3100        28  SAPE      C314          -19.0077413111      -14.6955306190        5.7116433517  MEMB      28              0.0000000000
      3101        28  SAPE      H14X          -18.6029938996      -13.7651134732        5.2590676194  MEMB      28              0.0000000000
      3102        28  SAPE      H14Y          -20.0791775705      -14.4384510337        5.8539649800  MEMB      28              0.0000000000
      3103        28  SAPE      C315          -18.8760932485      -15.8723786280        4.7504595523  MEMB      28              0.0000000000
      3104        28  SAPE      H15X          -19.0702772604      -16.9074865515        5.1042462836  MEMB      28              0.0000000000
      3105        28  SAPE      H15Y          -17.8130710598      -15.9212576986        4.4312171773  MEMB      28              0.0000000000
      3106        28  SAPE      C316          -19.5750398948      -15.6755812664        3.4365181442  MEMB      28              0.0000000000
      3107        28  SAPE      H16X          -20.6371051499      -15.5048862243        3.7143702849  MEMB      28              0.0000000000
      3108        28  SAPE      H16Y          -19.4570002086      -16.5689508845        2.7866894013  MEMB      28              0.0000000000
      3109        28  SAPE      C317          -19.2458234200      -14.4118341161        2.5597957852  MEMB      28              0.0000000000
      3110        28  SAPE      H17X          -18.1556993783      -14.2162171344        2.4721347689  MEMB      28              0.0000000000
      3111        28  SAPE      H17Y          -19.8158159204      -13.5444514455        2.9561247609  MEMB      28              0.0000000000
      3112        28  SAPE      C318          -19.6360553185      -14.6394696534        1.0990918314  MEMB      28              0.0000000000
      3113        28  SAPE      H18X          -20.6806976610      -15.0173897565        1.0842447011  MEMB      28              0.0000000000
      3114        28  SAPE      H18Y          -18.9473776617      -15.2217202974        0.4502242709  MEMB      28              0.0000000000
      3115        28  SAPE      H18Z          -19.7758761497      -13.6408006426        0.6327955584  MEMB      28              0.0000000000
      3116        29  SAPE      N              -5.0218315273      -22.0248862212       22.5277047098  MEMB      29              0.0000000000
      3117        29  SAPE      HN1            -5.6005873112      -22.8445810371       22.8010947698  MEMB      29              0.0000000000
      3118        29  SAPE      HN2            -4.8229386701      -21.4280479357       23.3558506343  MEMB      29              0.0000000000
      3119        29  SAPE      HN3            -5.3840161031      -21.5120374884       21.6986037421  MEMB      29              0.0000000000
      3120        29  SAPE      C12            -3.7457800500      -22.5797022581       22.1027410138  MEMB      29              0.0000000000
      3121        29  SAPE      H12A           -3.2777579410      -23.0757525968       22.9797873796  MEMB      29              0.0000000000
      3122        29  SAPE      H12B           -3.0455903127      -21.8123588119       21.7087366171  MEMB      29              0.0000000000
      3123        29  SAPE      C11            -4.0024688582      -23.5537536340       20.9481609790  MEMB      29              0.0000000000
      3124        29  SAPE      H11A           -4.5370699364      -24.4493134165       21.3309079032  MEMB      29              0.0000000000
      3125        29  SAPE      H11B           -3.1134990295      -24.0693577734       20.5260165251  MEMB      29              0.0000000000
      3126        29  SAPE      P              -4.1450587301      -21.7597687636       18.9218737077  MEMB      29              0.0000000000
      3127        29  SAPE      O13            -4.7192021812      -20.4808785279       19.3177471783  MEMB      29              0.0000000000
      3128        29  SAPE      O14            -2.6547494802      -21.8625462149       18.8868466055  MEMB      29              0.0000000000
      3129        29  SAPE      O12            -4.6603201718      -22.9413207814       19.8373806826  MEMB      29              0.0000000000
      3130        29  SAPE      O11            -4.6937156734      -22.1421835852       17.4575451210  MEMB      29              0.0000000000
      3131        29  SAPE      C1             -6.1167746335      -22.1831787417       17.3476615308  MEMB      29              0.0000000000
      3132        29  SAPE      HA             -6.5340918284      -22.9771848779       18.0031930234  MEMB      29              0.0000000000
      3133        29  SAPE      HB             -6.6257228296      -21.2434878344       17.6514272741  MEMB      29              0.0000000000
      3134        29  SAPE      C2             -6.5734624594      -22.4612971464       15.8707587893  MEMB      29              0.0000000000
      3135        29  SAPE      HS             -6.2753894200      -23.5020456237       15.6211267798  MEMB      29              0.0000000000
      3136        29  SAPE      O21            -5.9356161938      -21.4199020335       15.1147708896  MEMB      29              0.0000000000
      3137        29  SAPE      C21            -5.3460600114      -21.7726342041       13.9241528743  MEMB      29              0.0000000000
      3138        29  SAPE      O22            -5.1371654416      -22.9335668178       13.5332154959  MEMB      29              0.0000000000
      3139        29  SAPE      C22            -4.7052817766      -20.5751308358       13.2820583721  MEMB      29              0.0000000000
      3140        29  SAPE      H2R            -4.9351222058      -19.7030920737       13.9309362605  MEMB      29              0.0000000000
      3141        29  SAPE      H2S            -3.5960181637      -20.5685570223       13.2203163540  MEMB      29              0.0000000000
      3142        29  SAPE      C3             -8.0894802465      -22.4015783270       15.6416144975  MEMB      29              0.0000000000
      3143        29  SAPE      HX             -8.5330888617      -21.5036995088       16.1225988177  MEMB      29              0.0000000000
      3144        29  SAPE      HY             -8.5402239674      -23.2468209543       16.2043899805  MEMB      29              0.0000000000
      3145        29  SAPE      O31            -8.3891670002      -22.2752533749       14.2295431220  MEMB      29              0.0000000000
      3146        29  SAPE      C31            -8.8123953296      -23.3374876158       13.6598120387  MEMB      29              0.0000000000
      3147        29  SAPE      O32            -8.9314957710      -24.4306091321       14.1936479183  MEMB      29              0.0000000000
      3148        29  SAPE      C32            -8.9963089675      -23.0820553801       12.1711840947  MEMB      29              0.0000000000
      3149        29  SAPE      H2X            -8.5440026579      -22.1014595291       11.9100857550  MEMB      29              0.0000000000
      3150        29  SAPE      H2Y           -10.0467893739      -22.8980685912       11.8597999891  MEMB      29              0.0000000000
      3151        29  SAPE      C23            -5.2424104957      -20.3586622498       11.8522111066  MEMB      29              0.0000000000
      3152        29  SAPE      H3R            -6.3464112579      -20.2351065268       11.8676200098  MEMB      29              0.0000000000
      3153        29  SAPE      H3S            -5.0877450328      -21.2944821798       11.2737293721  MEMB      29              0.0000000000
      3154        29  SAPE      C24            -4.6109214734      -19.1681348537       11.2361675954  MEMB      29              0.0000000000
      3155        29  SAPE      H4R            -3.5080698626      -19.2655139553       11.3286702497  MEMB      29              0.0000000000
      3156        29  SAPE      H4S            -4.9619292734      -18.2516996206       11.7569951489  MEMB      29              0.0000000000
      3157        29  SAPE      C25            -4.9563296428      -19.1263295824        9.7262209736  MEMB      29              0.0000000000
      3158        29  SAPE      H5R            -5.9665526116      -18.7504411212        9.5067725788  MEMB      29              0.0000000000
      3159        29  SAPE      C26            -4.1967161334      -19.4929100059        8.6747186392  MEMB      29              0.0000000000
      3160        29  SAPE      H6R            -4.4374666762      -19.1441791933        7.6596191706  MEMB      29              0.0000000000
      3161        29  SAPE      C27            -2.7413553811      -19.9883032246        8.7275477195  MEMB      29              0.0000000000
      3162        29  SAPE      H7R            -2.1383264953      -19.1560200838        9.1494267769  MEMB      29              0.0000000000
      3163        29  SAPE      H7S            -2.3105433620      -20.1043765941        7.7100757918  MEMB      29              0.0000000000
      3164        29  SAPE      C28            -2.4954318686      -21.2197424197        9.5987343592  MEMB      29              0.0000000000
      3165        29  SAPE      H8R            -1.8643291837      -21.0872241194       10.4898833929  MEMB      29              0.0000000000
      3166        29  SAPE      C29            -2.9549822779      -22.4258011057        9.2111536191  MEMB      29              0.0000000000
      3167        29  SAPE      H9R            -2.6989319251      -23.2186638841        9.9293508241  MEMB      29              0.0000000000
      3168        29  SAPE      C210           -3.7556263106      -22.8771081136        7.9917438101  MEMB      29              0.0000000000
      3169        29  SAPE      H10R           -3.9624712535      -22.0635685047        7.2639463730  MEMB      29              0.0000000000
      3170        29  SAPE      H10S           -4.7903209836      -23.1817259566        8.2580816173  MEMB      29              0.0000000000
      3171        29  SAPE      C211           -3.1404883643      -24.0747703166        7.2739409298  MEMB      29              0.0000000000
      3172        29  SAPE      H11R           -3.1564048930      -25.0353041201        7.8097779350  MEMB      29              0.0000000000
      3173        29  SAPE      C212           -2.6477927912      -24.0530536029        5.9965471503  MEMB      29              0.0000000000
      3174        29  SAPE      H12R           -1.9903841350      -24.8780364367        5.6847501448  MEMB      29              0.0000000000
      3175        29  SAPE      C213           -2.6488287344      -22.8969931600        5.0229127952  MEMB      29              0.0000000000
      3176        29  SAPE      H13R           -2.0258676253      -22.0518866568        5.3862796688  MEMB      29              0.0000000000
      3177        29  SAPE      H13S           -3.7215063644      -22.6433928658        4.8837337580  MEMB      29              0.0000000000
      3178        29  SAPE      C214           -2.0182195287      -23.1388943724        3.6834138890  MEMB      29              0.0000000000
      3179        29  SAPE      H14R           -1.1800655074      -22.4580632612        3.4737313138  MEMB      29              0.0000000000
      3180        29  SAPE      C215           -2.5217035465      -23.9542262588        2.7976703415  MEMB      29              0.0000000000
      3181        29  SAPE      H15R           -2.0231915332      -24.1052964030        1.8288237062  MEMB      29              0.0000000000
      3182        29  SAPE      C216           -3.7376828054      -24.8493233591        2.7957747478  MEMB      29              0.0000000000
      3183        29  SAPE      H16R           -3.7580533876      -25.2190148489        3.8432649204  MEMB      29              0.0000000000
      3184        29  SAPE      H16S           -3.6432334408      -25.7487941943        2.1505224337  MEMB      29              0.0000000000
      3185        29  SAPE      C217           -5.0133306216      -24.0821651792        2.3213457378  MEMB      29              0.0000000000
      3186        29  SAPE      H17R           -4.7831246837      -23.5826251687        1.3560548304  MEMB      29              0.0000000000
      3187        29  SAPE      H17S           -5.2939474406      -23.2393514964        2.9886087738  MEMB      29              0.0000000000
      3188        29  SAPE      C218           -6.1787258934      -25.0623598772        2.2915181445  MEMB      29              0.0000000000
      3189        29  SAPE      H18R           -7.0885452760      -24.4358365472        2.4099172400  MEMB      29              0.0000000000
      3190        29  SAPE      H18S           -6.2350762496      -25.7245725695        3.1818111022  MEMB      29              0.0000000000
      3191        29  SAPE      C219           -6.2706589544      -25.9919903161        1.0688938070  MEMB      29              0.0000000000
      3192        29  SAPE      H19R           -5.4223152607      -26.7092934698        1.0583877602  MEMB      29              0.0000000000
      3193        29  SAPE      H19S           -6.2408234606      -25.4675768312        0.0899044166  MEMB      29              0.0000000000
      3194        29  SAPE      C220           -7.5583616346      -26.7918315265        1.0751724751  MEMB      29              0.0000000000
      3195        29  SAPE      H20R           -7.7929986619      -27.2276094349        2.0698394993  MEMB      29              0.0000000000
      3196        29  SAPE      H20S           -7.5515301751      -27.6455435169        0.3642230571  MEMB      29              0.0000000000
      3197        29  SAPE      H20T           -8.3706460392      -26.1158030242        0.7323878920  MEMB      29              0.0000000000
      3198        29  SAPE      C33            -8.4372502804      -24.2428476088       11.2367466212  MEMB      29              0.0000000000
      3199        29  SAPE      H3X            -8.9028704150      -25.1547717072       11.6679230922  MEMB      29              0.0000000000
      3200        29  SAPE      H3Y            -7.3300983981      -24.3151647989       11.2942407620  MEMB      29              0.0000000000
      3201        29  SAPE      C34            -9.0263217602      -24.0084469080        9.8472878617  MEMB      29              0.0000000000
      3202        29  SAPE      H4X            -8.8122623739      -22.9428147030        9.6172278403  MEMB      29              0.0000000000
      3203        29  SAPE      H4Y           -10.0848735228      -24.3200163749        9.7180078364  MEMB      29              0.0000000000
      3204        29  SAPE      C35            -8.2869430385      -24.6623595789        8.7059209673  MEMB      29              0.0000000000
      3205        29  SAPE      H5X            -8.4175561421      -25.7547345788        8.8607689441  MEMB      29              0.0000000000
      3206        29  SAPE      H5Y            -7.2352918891      -24.3109920634        8.7758601697  MEMB      29              0.0000000000
      3207        29  SAPE      C36            -8.8826495402      -24.4168052105        7.3261256844  MEMB      29              0.0000000000
      3208        29  SAPE      H6X            -9.9335826935      -24.7563728685        7.2054860482  MEMB      29              0.0000000000
      3209        29  SAPE      H6Y            -8.3026537327      -25.0267058617        6.6009037924  MEMB      29              0.0000000000
      3210        29  SAPE      C37            -8.6853271002      -23.0141439921        6.7271671371  MEMB      29              0.0000000000
      3211        29  SAPE      H7X            -9.0859715664      -22.2160378368        7.3880996991  MEMB      29              0.0000000000
      3212        29  SAPE      H7Y            -9.3136413922      -23.0717469326        5.8127149901  MEMB      29              0.0000000000
      3213        29  SAPE      C38            -7.2312703556      -22.6430873431        6.3875980277  MEMB      29              0.0000000000
      3214        29  SAPE      H8X            -7.0572675526      -22.8298492189        5.3063189655  MEMB      29              0.0000000000
      3215        29  SAPE      H8Y            -6.5831487209      -23.2705532297        7.0360932229  MEMB      29              0.0000000000
      3216        29  SAPE      C39            -6.8872724982      -21.1983298908        6.6285755098  MEMB      29              0.0000000000
      3217        29  SAPE      H9X            -5.8301504133      -21.0512524341        6.3200595396  MEMB      29              0.0000000000
      3218        29  SAPE      H9Y            -7.0648289995      -20.9549236045        7.6979435807  MEMB      29              0.0000000000
      3219        29  SAPE      C310           -7.6823874257      -20.1487449679        5.8123747935  MEMB      29              0.0000000000
      3220        29  SAPE      H10X           -7.8709761832      -19.2365460779        6.4178892729  MEMB      29              0.0000000000
      3221        29  SAPE      H10Y           -8.6504010508      -20.5124380204        5.4061748364  MEMB      29              0.0000000000
      3222        29  SAPE      C311           -6.8871925992      -19.7158828920        4.6171884772  MEMB      29              0.0000000000
      3223        29  SAPE      H11X           -7.5648858763      -18.9101874784        4.2623529293  MEMB      29              0.0000000000
      3224        29  SAPE      H11Y           -6.9253845126      -20.4619815878        3.7948757989  MEMB      29              0.0000000000
      3225        29  SAPE      C312           -5.4392952851      -19.0848301229        4.8592234788  MEMB      29              0.0000000000
      3226        29  SAPE      H12X           -4.7286304158      -19.9362500167        4.9252586356  MEMB      29              0.0000000000
      3227        29  SAPE      H12Y           -5.4270566354      -18.5803277353        5.8489957974  MEMB      29              0.0000000000
      3228        29  SAPE      C313           -5.0648286102      -18.0710897542        3.7619291410  MEMB      29              0.0000000000
      3229        29  SAPE      H13X           -4.3845617937      -17.3913625699        4.3182823396  MEMB      29              0.0000000000
      3230        29  SAPE      H13Y           -5.9936906141      -17.6368414921        3.3341860512  MEMB      29              0.0000000000
      3231        29  SAPE      C314           -4.2532338181      -18.6510760640        2.5782151003  MEMB      29              0.0000000000
      3232        29  SAPE      H14X           -3.4092852495      -19.1209231297        3.1271381321  MEMB      29              0.0000000000
      3233        29  SAPE      H14Y           -3.9636225911      -17.8776145695        1.8351110495  MEMB      29              0.0000000000
      3234        29  SAPE      C315           -4.8960310588      -19.8811538957        1.8832836513  MEMB      29              0.0000000000
      3235        29  SAPE      H15X           -5.2763059420      -20.6230780997        2.6176281789  MEMB      29              0.0000000000
      3236        29  SAPE      H15Y           -3.9827621018      -20.3042898535        1.4129473474  MEMB      29              0.0000000000
      3237        29  SAPE      C316           -6.0829244518      -19.5251779625        0.8991650494  MEMB      29              0.0000000000
      3238        29  SAPE      H16X           -5.6635705387      -18.8301619012        0.1406038165  MEMB      29              0.0000000000
      3239        29  SAPE      H16Y           -6.8287804777      -18.8217042020        1.3271191059  MEMB      29              0.0000000000
      3240        29  SAPE      C317           -6.7258756435      -20.7905309632        0.3123335328  MEMB      29              0.0000000000
      3241        29  SAPE      H17X           -7.6103981325      -20.5938949891       -0.3305316763  MEMB      29              0.0000000000
      3242        29  SAPE      H17Y           -7.0011157844      -21.4972556184        1.1241859221  MEMB      29              0.0000000000
      3243        29  SAPE      C318           -5.8059454010      -21.7656018766       -0.6080456486  MEMB      29              0.0000000000
      3244        29  SAPE      H18X           -4.7895655639      -21.9351262469       -0.1926494357  MEMB      29              0.0000000000
      3245        29  SAPE      H18Y           -5.7030159771      -21.3755446803       -1.6432187294  MEMB      29              0.0000000000
      3246        29  SAPE      H18Z           -6.2761827598      -22.7654206753       -0.7244943543  MEMB      29              0.0000000000
      3247        30  CHL1      C3            -20.4322797090       10.1806106337       17.3024050000  MEMB      30              0.0000000000
      3248        30  CHL1      H3            -20.7038225837        9.1367555414       17.0360450000  MEMB      30              0.0000000000
      3249        30  CHL1      O3            -20.3229386910       10.2041567663       18.6975950000  MEMB      30              0.0000000000
      3250        30  CHL1      H3'           -21.1991472199       10.2672261944       19.0847550000  MEMB      30              0.0000000000
      3251        30  CHL1      C4            -19.3012029396       10.5955963234       16.4562550000  MEMB      30              0.0000000000
      3252        30  CHL1      H4A           -18.9831580029       11.6259565195       16.7237150000  MEMB      30              0.0000000000
      3253        30  CHL1      H4B           -18.5538313372        9.8666349397       16.8361950000  MEMB      30              0.0000000000
      3254        30  CHL1      C5            -19.4783782185       10.6512716819       14.9515450000  MEMB      30              0.0000000000
      3255        30  CHL1      C6            -18.7756929840        9.8490877668       14.0961850000  MEMB      30              0.0000000000
      3256        30  CHL1      H6            -17.9884324692        9.2122416890       14.5258950000  MEMB      30              0.0000000000
      3257        30  CHL1      C7            -19.0425710568        9.8583379816       12.6684250000  MEMB      30              0.0000000000
      3258        30  CHL1      H7A           -18.0837230135        9.9189693375       12.1105350000  MEMB      30              0.0000000000
      3259        30  CHL1      H7B           -19.5456975301        8.9020404002       12.4101750000  MEMB      30              0.0000000000
      3260        30  CHL1      C8            -19.9212065721       11.0279423850       12.1351950000  MEMB      30              0.0000000000
      3261        30  CHL1      H8            -19.3574114921       11.9847206603       12.1033050000  MEMB      30              0.0000000000
      3262        30  CHL1      C14           -20.3454592388       10.7781781462       10.6588150000  MEMB      30              0.0000000000
      3263        30  CHL1      H14           -20.7480252577        9.7458056183       10.7392150000  MEMB      30              0.0000000000
      3264        30  CHL1      C15           -19.2393238742       10.6997000474        9.6097950000  MEMB      30              0.0000000000
      3265        30  CHL1      H15A          -18.5573269806       11.5618602307        9.7706150000  MEMB      30              0.0000000000
      3266        30  CHL1      H15B          -18.6824911835        9.7400173689        9.6671250000  MEMB      30              0.0000000000
      3267        30  CHL1      C16           -20.0020093542       10.8166357718        8.2547750000  MEMB      30              0.0000000000
      3268        30  CHL1      H16A          -19.3994303027       11.5106072700        7.6305850000  MEMB      30              0.0000000000
      3269        30  CHL1      H16B          -20.1518290058        9.8017326978        7.8283250000  MEMB      30              0.0000000000
      3270        30  CHL1      C17           -21.4205756707       11.3889979007        8.6404350000  MEMB      30              0.0000000000
      3271        30  CHL1      H17           -22.1087351133       10.5232118257        8.5346950000  MEMB      30              0.0000000000
      3272        30  CHL1      C13           -21.2458844360       11.9223186013       10.1179850000  MEMB      30              0.0000000000
      3273        30  CHL1      C18           -20.6351296569       13.3437705570       10.0546750000  MEMB      30              0.0000000000
      3274        30  CHL1      H18A          -20.1030245064       13.7373685149       10.9470150000  MEMB      30              0.0000000000
      3275        30  CHL1      H18B          -19.8824430328       13.3031679276        9.2385050000  MEMB      30              0.0000000000
      3276        30  CHL1      H18C          -21.4564034809       14.0346272606        9.7673850000  MEMB      30              0.0000000000
      3277        30  CHL1      C12           -22.5959678379       11.9255390787       10.9312050000  MEMB      30              0.0000000000
      3278        30  CHL1      H12A          -23.1949501523       12.7424182705       10.4748550000  MEMB      30              0.0000000000
      3279        30  CHL1      H12B          -23.0122291924       10.9163035835       10.7250450000  MEMB      30              0.0000000000
      3280        30  CHL1      C11           -22.2979239440       12.1000955661       12.4513650000  MEMB      30              0.0000000000
      3281        30  CHL1      H11A          -21.9221539805       13.1454188398       12.4312550000  MEMB      30              0.0000000000
      3282        30  CHL1      H11B          -23.2128791739       12.0477565403       13.0794150000  MEMB      30              0.0000000000
      3283        30  CHL1      C9            -21.1578238257       11.1501231465       13.0159550000  MEMB      30              0.0000000000
      3284        30  CHL1      H9            -21.5162894815       10.0985505019       13.0197950000  MEMB      30              0.0000000000
      3285        30  CHL1      C10           -20.7221389006       11.4120350586       14.5047050000  MEMB      30              0.0000000000
      3286        30  CHL1      C19           -20.2160271363       12.9432843348       14.5500550000  MEMB      30              0.0000000000
      3287        30  CHL1      H19A          -19.3390250292       13.2210869805       13.9271450000  MEMB      30              0.0000000000
      3288        30  CHL1      H19B          -20.9026704270       13.7881058266       14.3284150000  MEMB      30              0.0000000000
      3289        30  CHL1      H19C          -20.0198933356       13.1078774344       15.6311450000  MEMB      30              0.0000000000
      3290        30  CHL1      C1            -21.9287500336       11.2210601143       15.4165150000  MEMB      30              0.0000000000
      3291        30  CHL1      H1A           -22.6305216015       12.0603718575       15.2231550000  MEMB      30              0.0000000000
      3292        30  CHL1      H1B           -22.4551385972       10.3055304817       15.0714750000  MEMB      30              0.0000000000
      3293        30  CHL1      C2            -21.5753053074       11.1246509991       16.9310850000  MEMB      30              0.0000000000
      3294        30  CHL1      H2A           -22.5587708134       10.7647948289       17.3020650000  MEMB      30              0.0000000000
      3295        30  CHL1      H2B           -21.4624187235       12.1415217646       17.3641650000  MEMB      30              0.0000000000
      3296        30  CHL1      C20           -21.9842946366       12.2361073083        7.4933050000  MEMB      30              0.0000000000
      3297        30  CHL1      H20           -21.3933934676       13.1733071174        7.4107350000  MEMB      30              0.0000000000
      3298        30  CHL1      C21           -23.4584997695       12.6735051008        7.6913050000  MEMB      30              0.0000000000
      3299        30  CHL1      H21A          -23.8688613882       13.0302120136        6.7224550000  MEMB      30              0.0000000000
      3300        30  CHL1      H21B          -23.4639678782       13.5438840633        8.3817650000  MEMB      30              0.0000000000
      3301        30  CHL1      H21C          -24.0628533751       11.7807327073        7.9596850000  MEMB      30              0.0000000000
      3302        30  CHL1      C22           -21.9981588928       11.6462583282        6.0831350000  MEMB      30              0.0000000000
      3303        30  CHL1      H22A          -21.4489184052       10.6805401752        6.0758950000  MEMB      30              0.0000000000
      3304        30  CHL1      H22B          -23.0136469446       11.3267709597        5.7653050000  MEMB      30              0.0000000000
      3305        30  CHL1      C23           -21.4950875736       12.5502981689        4.9499850000  MEMB      30              0.0000000000
      3306        30  CHL1      H23A          -21.9679996433       13.5549701027        4.9139750000  MEMB      30              0.0000000000
      3307        30  CHL1      H23B          -20.4530181035       12.7939337166        5.2483950000  MEMB      30              0.0000000000
      3308        30  CHL1      C24           -21.3829627238       11.7993447569        3.6503650000  MEMB      30              0.0000000000
      3309        30  CHL1      H24A          -20.5912721330       11.0252099799        3.5594150000  MEMB      30              0.0000000000
      3310        30  CHL1      H24B          -22.3234319369       11.2144071121        3.5626150000  MEMB      30              0.0000000000
      3311        30  CHL1      C25           -21.2769877824       12.7252809635        2.4466350000  MEMB      30              0.0000000000
      3312        30  CHL1      H25           -22.0562328248       13.5171576380        2.4515450000  MEMB      30              0.0000000000
      3313        30  CHL1      C26           -19.9417442361       13.3673080849        2.3720850000  MEMB      30              0.0000000000
      3314        30  CHL1      H26A          -19.8456645770       14.1184269818        1.5591250000  MEMB      30              0.0000000000
      3315        30  CHL1      H26B          -19.5865370402       13.7446129743        3.3548350000  MEMB      30              0.0000000000
      3316        30  CHL1      H26C          -19.2753873711       12.5230709158        2.0936150000  MEMB      30              0.0000000000
      3317        30  CHL1      C27           -21.4355909643       12.0399950492        1.0809650000  MEMB      30              0.0000000000
      3318        30  CHL1      H27A          -22.5034241793       11.7408768020        1.0132650000  MEMB      30              0.0000000000
      3319        30  CHL1      H27B          -21.2502724946       12.7820778419        0.2751650000  MEMB      30              0.0000000000
      3320        30  CHL1      H27C          -20.6799869585       11.2262548827        1.0462850000  MEMB      30              0.0000000000
      3321        31  SAPE      N              23.1438636005        3.4981954125       18.4401809009  MEMB      31              0.0000000000
      3322        31  SAPE      HN1            23.0246562802        4.4494979479       18.0371757873  MEMB      31              0.0000000000
      3323        31  SAPE      HN2            24.0601667189        3.0092892720       18.3857788378  MEMB      31              0.0000000000
      3324        31  SAPE      HN3            22.4276715451        2.8823708685       18.0049463996  MEMB      31              0.0000000000
      3325        31  SAPE      C12            22.9237110654        3.6823474681       19.9030722214  MEMB      31              0.0000000000
      3326        31  SAPE      H12A           21.9063330874        3.3085319894       20.1470498919  MEMB      31              0.0000000000
      3327        31  SAPE      H12B           23.0510005337        4.7672329396       20.1059071975  MEMB      31              0.0000000000
      3328        31  SAPE      C11            23.9470263416        3.0169595127       20.9283552018  MEMB      31              0.0000000000
      3329        31  SAPE      H11A           24.0393057455        3.4711397454       21.9380709352  MEMB      31              0.0000000000
      3330        31  SAPE      H11B           24.9628958957        3.1674794009       20.5044756823  MEMB      31              0.0000000000
      3331        31  SAPE      P              23.9325369705        0.5221493254       20.1347710282  MEMB      31              0.0000000000
      3332        31  SAPE      O13            24.4503311048       -0.6533582857       20.9020149538  MEMB      31              0.0000000000
      3333        31  SAPE      O14            22.7928121876        0.3038907656       19.2910980725  MEMB      31              0.0000000000
      3334        31  SAPE      O12            23.5339162598        1.7150673720       21.1511092392  MEMB      31              0.0000000000
      3335        31  SAPE      O11            25.1221136697        1.0387085893       19.2493983583  MEMB      31              0.0000000000
      3336        31  SAPE      C1             26.4199814114        0.4898984046       19.2927052153  MEMB      31              0.0000000000
      3337        31  SAPE      HA             26.8698625843        0.7833855256       20.2652241340  MEMB      31              0.0000000000
      3338        31  SAPE      HB             26.4253736784       -0.6157545645       19.1839694334  MEMB      31              0.0000000000
      3339        31  SAPE      C2             27.2272787299        1.1993576904       18.1903491291  MEMB      31              0.0000000000
      3340        31  SAPE      HS             27.8149036072        2.0940372959       18.4879506132  MEMB      31              0.0000000000
      3341        31  SAPE      O21            26.3407665609        1.5323519478       17.0976554010  MEMB      31              0.0000000000
      3342        31  SAPE      C21            26.7823549587        2.5050734901       16.2518658311  MEMB      31              0.0000000000
      3343        31  SAPE      O22            27.8157385704        3.2046236073       16.4264852492  MEMB      31              0.0000000000
      3344        31  SAPE      C22            25.9179658468        2.6527979087       15.0116834803  MEMB      31              0.0000000000
      3345        31  SAPE      H2R            25.4918538876        1.6663507699       14.7294218318  MEMB      31              0.0000000000
      3346        31  SAPE      H2S            24.9810101537        3.2173002738       15.2060338595  MEMB      31              0.0000000000
      3347        31  SAPE      C3             28.4056324052        0.3186619090       17.5935221361  MEMB      31              0.0000000000
      3348        31  SAPE      HX             29.0426022563       -0.2843327219       18.2754224116  MEMB      31              0.0000000000
      3349        31  SAPE      HY             29.0580683331        1.0801019307       17.1151317724  MEMB      31              0.0000000000
      3350        31  SAPE      O31            27.8765478171       -0.6073792263       16.6042743371  MEMB      31              0.0000000000
      3351        31  SAPE      C31            28.7970256305       -1.2698441607       15.9070238979  MEMB      31              0.0000000000
      3352        31  SAPE      O32            29.9711959922       -1.3800792306       16.1538738855  MEMB      31              0.0000000000
      3353        31  SAPE      C32            28.2334595579       -1.9027473062       14.5685399770  MEMB      31              0.0000000000
      3354        31  SAPE      H2X            27.5078485651       -2.6871446852       14.8727275477  MEMB      31              0.0000000000
      3355        31  SAPE      H2Y            29.1152804407       -2.3343336267       14.0484955385  MEMB      31              0.0000000000
      3356        31  SAPE      C23            26.6911266123        3.4540719472       13.9370775011  MEMB      31              0.0000000000
      3357        31  SAPE      H3R            27.6400564125        2.9048403747       13.7576388891  MEMB      31              0.0000000000
      3358        31  SAPE      H3S            27.0659026772        4.3919078051       14.4000326771  MEMB      31              0.0000000000
      3359        31  SAPE      C24            25.8439513764        3.8138025747       12.7430756134  MEMB      31              0.0000000000
      3360        31  SAPE      H4R            25.3892420851        2.8775437954       12.3545140976  MEMB      31              0.0000000000
      3361        31  SAPE      H4S            26.5566569615        4.0724708131       11.9310024952  MEMB      31              0.0000000000
      3362        31  SAPE      C25            24.6427093687        4.8036221956       12.7418877122  MEMB      31              0.0000000000
      3363        31  SAPE      H5R            24.3342513532        5.2231457950       13.7108320170  MEMB      31              0.0000000000
      3364        31  SAPE      C26            23.8755228016        5.2330661588       11.7855369247  MEMB      31              0.0000000000
      3365        31  SAPE      H6R            23.0509504866        5.9209950020       12.0239368448  MEMB      31              0.0000000000
      3366        31  SAPE      C27            24.1636653316        4.7737692652       10.3292205375  MEMB      31              0.0000000000
      3367        31  SAPE      H7R            23.1607427732        4.7318348266        9.8530814314  MEMB      31              0.0000000000
      3368        31  SAPE      H7S            24.5191053560        3.7251518924       10.2376510910  MEMB      31              0.0000000000
      3369        31  SAPE      C28            24.8863339077        5.6724436181        9.3487441811  MEMB      31              0.0000000000
      3370        31  SAPE      H8R            24.4439762206        6.6580557392        9.1416492040  MEMB      31              0.0000000000
      3371        31  SAPE      C29            26.0506281996        5.3777486785        8.6865806596  MEMB      31              0.0000000000
      3372        31  SAPE      H9R            26.6086580563        6.0235664767        7.9926625020  MEMB      31              0.0000000000
      3373        31  SAPE      C210           26.8671012081        4.1166114115        8.7543480608  MEMB      31              0.0000000000
      3374        31  SAPE      H10R           26.3438438648        3.2624293019        8.2738314118  MEMB      31              0.0000000000
      3375        31  SAPE      H10S           27.1201384771        3.9370148092        9.8211364448  MEMB      31              0.0000000000
      3376        31  SAPE      C211           28.2968952173        4.2701841911        8.1746554448  MEMB      31              0.0000000000
      3377        31  SAPE      H11R           29.0357970181        4.3792159822        8.9822053947  MEMB      31              0.0000000000
      3378        31  SAPE      C212           28.6948285309        4.2956487611        6.8607231844  MEMB      31              0.0000000000
      3379        31  SAPE      H12R           29.7336186797        4.5017719907        6.5633550496  MEMB      31              0.0000000000
      3380        31  SAPE      C213           27.6748794319        4.1651467957        5.7216145830  MEMB      31              0.0000000000
      3381        31  SAPE      H13R           28.0947424108        4.7484712250        4.8744019949  MEMB      31              0.0000000000
      3382        31  SAPE      H13S           26.7652883448        4.7465694326        5.9841260637  MEMB      31              0.0000000000
      3383        31  SAPE      C214           27.2676179387        2.8230106318        5.2693543193  MEMB      31              0.0000000000
      3384        31  SAPE      H14R           27.8998338152        1.9852640997        5.5987233547  MEMB      31              0.0000000000
      3385        31  SAPE      C215           26.3637776104        2.5079093415        4.3210246064  MEMB      31              0.0000000000
      3386        31  SAPE      H15R           26.1190863433        1.4504325493        4.1425051348  MEMB      31              0.0000000000
      3387        31  SAPE      C216           25.5579042906        3.4622103663        3.5311840303  MEMB      31              0.0000000000
      3388        31  SAPE      H16R           25.8814355152        4.4735926771        3.8579163332  MEMB      31              0.0000000000
      3389        31  SAPE      H16S           24.4674158742        3.3365139775        3.7025236318  MEMB      31              0.0000000000
      3390        31  SAPE      C217           25.7239857223        3.3792749743        1.9640556184  MEMB      31              0.0000000000
      3391        31  SAPE      H17R           25.1839301392        4.3005584291        1.6576278975  MEMB      31              0.0000000000
      3392        31  SAPE      H17S           25.2532092274        2.4967680573        1.4804530686  MEMB      31              0.0000000000
      3393        31  SAPE      C218           27.1668954663        3.5078956375        1.4683253039  MEMB      31              0.0000000000
      3394        31  SAPE      H18R           27.6812179330        2.5360354432        1.6273264011  MEMB      31              0.0000000000
      3395        31  SAPE      H18S           27.7415309194        4.2451005881        2.0688616173  MEMB      31              0.0000000000
      3396        31  SAPE      C219           27.2852906412        3.9321112246        0.0479816630  MEMB      31              0.0000000000
      3397        31  SAPE      H19R           28.2685799767        3.7413760927       -0.4327294314  MEMB      31              0.0000000000
      3398        31  SAPE      H19S           27.0861819504        5.0246097286        0.0144681873  MEMB      31              0.0000000000
      3399        31  SAPE      C220           26.2181081673        3.3133805958       -0.8753447980  MEMB      31              0.0000000000
      3400        31  SAPE      H20R           26.2904800358        2.2095798397       -0.9788223524  MEMB      31              0.0000000000
      3401        31  SAPE      H20S           26.3420430493        3.5715695431       -1.9487968267  MEMB      31              0.0000000000
      3402        31  SAPE      H20T           25.1857007962        3.6074452353       -0.5890212481  MEMB      31              0.0000000000
      3403        31  SAPE      C33            27.7217997110       -0.8075279883       13.6336792678  MEMB      31              0.0000000000
      3404        31  SAPE      H3X            28.5380332253       -0.0881330780       13.4088352085  MEMB      31              0.0000000000
      3405        31  SAPE      H3Y            26.8581182830       -0.3387355985       14.1519544275  MEMB      31              0.0000000000
      3406        31  SAPE      C34            27.2172855189       -1.2478023560       12.2082022785  MEMB      31              0.0000000000
      3407        31  SAPE      H4X            26.3492469486       -1.9204327697       12.3767205436  MEMB      31              0.0000000000
      3408        31  SAPE      H4Y            28.1233541308       -1.5759418138       11.6553145268  MEMB      31              0.0000000000
      3409        31  SAPE      C35            26.5581352912       -0.1135723887       11.3879126122  MEMB      31              0.0000000000
      3410        31  SAPE      H5X            27.2275712073        0.6737460549       10.9801057385  MEMB      31              0.0000000000
      3411        31  SAPE      H5Y            25.7450120427        0.3595835198       11.9789076053  MEMB      31              0.0000000000
      3412        31  SAPE      C36            25.8416144655       -0.7579466438       10.1812507799  MEMB      31              0.0000000000
      3413        31  SAPE      H6X            25.2043604773       -1.6229415629       10.4641149652  MEMB      31              0.0000000000
      3414        31  SAPE      H6Y            26.5221758723       -1.0949168966        9.3703201638  MEMB      31              0.0000000000
      3415        31  SAPE      C37            24.9992327364        0.3178550091        9.4618711969  MEMB      31              0.0000000000
      3416        31  SAPE      H7X            25.6546897114        1.0155463466        8.8980242697  MEMB      31              0.0000000000
      3417        31  SAPE      H7Y            24.3296905021        0.7929358009       10.2104255197  MEMB      31              0.0000000000
      3418        31  SAPE      C38            24.0115335257       -0.2540140240        8.4020540545  MEMB      31              0.0000000000
      3419        31  SAPE      H8X            23.2097148541       -0.9015135404        8.8169665453  MEMB      31              0.0000000000
      3420        31  SAPE      H8Y            24.6509954147       -0.9320158682        7.7973034632  MEMB      31              0.0000000000
      3421        31  SAPE      C39            23.2894442081        0.8327827771        7.6179087954  MEMB      31              0.0000000000
      3422        31  SAPE      H9X            24.1138205816        1.5114449424        7.3110823235  MEMB      31              0.0000000000
      3423        31  SAPE      H9Y            22.5459540004        1.2780709599        8.3130797008  MEMB      31              0.0000000000
      3424        31  SAPE      C310           22.4354482814        0.2569834701        6.4615924102  MEMB      31              0.0000000000
      3425        31  SAPE      H10X           22.1792021698        1.1764889942        5.8931134925  MEMB      31              0.0000000000
      3426        31  SAPE      H10Y           21.5932596056       -0.3024356856        6.9221244624  MEMB      31              0.0000000000
      3427        31  SAPE      C311           23.1890997258       -0.6057373586        5.4848479262  MEMB      31              0.0000000000
      3428        31  SAPE      H11X           23.5687401186       -1.5495737439        5.9313528023  MEMB      31              0.0000000000
      3429        31  SAPE      H11Y           24.1121192575       -0.0812959150        5.1572540313  MEMB      31              0.0000000000
      3430        31  SAPE      C312           22.2592899537       -0.9673802839        4.3019317024  MEMB      31              0.0000000000
      3431        31  SAPE      H12X           21.4829720170       -0.1870838472        4.1509720076  MEMB      31              0.0000000000
      3432        31  SAPE      H12Y           21.7092101892       -1.8775499360        4.6233724778  MEMB      31              0.0000000000
      3433        31  SAPE      C313           22.9767617348       -1.2326191562        3.0087126622  MEMB      31              0.0000000000
      3434        31  SAPE      H13X           22.3838448363       -1.8978910518        2.3452485096  MEMB      31              0.0000000000
      3435        31  SAPE      H13Y           23.9319844272       -1.7668552913        3.1996636947  MEMB      31              0.0000000000
      3436        31  SAPE      C314           23.1518054833        0.1214710461        2.3070258886  MEMB      31              0.0000000000
      3437        31  SAPE      H14X           23.8728814482        0.7241326142        2.8996223833  MEMB      31              0.0000000000
      3438        31  SAPE      H14Y           22.1787656306        0.6432995008        2.4303546526  MEMB      31              0.0000000000
      3439        31  SAPE      C315           23.4455979339        0.0542599925        0.8448025052  MEMB      31              0.0000000000
      3440        31  SAPE      H15X           23.5279548747        1.0568000387        0.3731543628  MEMB      31              0.0000000000
      3441        31  SAPE      H15Y           22.7481177147       -0.5464796145        0.2227457720  MEMB      31              0.0000000000
      3442        31  SAPE      C316           24.7799994381       -0.8055873386        0.5187443910  MEMB      31              0.0000000000
      3443        31  SAPE      H16X           24.7220868368       -1.0301709242       -0.5677757435  MEMB      31              0.0000000000
      3444        31  SAPE      H16Y           24.7077543242       -1.8193806747        0.9674367184  MEMB      31              0.0000000000
      3445        31  SAPE      C317           26.1069374095       -0.1756942092        1.0811080201  MEMB      31              0.0000000000
      3446        31  SAPE      H17X           26.0009387179       -0.1849143172        2.1870014685  MEMB      31              0.0000000000
      3447        31  SAPE      H17Y           26.1843190639        0.8830926263        0.7535355303  MEMB      31              0.0000000000
      3448        31  SAPE      C318           27.4136216101       -0.9532356085        0.8124948588  MEMB      31              0.0000000000
      3449        31  SAPE      H18X           27.3915312182       -1.9504017118        1.3018740724  MEMB      31              0.0000000000
      3450        31  SAPE      H18Y           28.3437036425       -0.4950802348        1.2116961054  MEMB      31              0.0000000000
      3451        31  SAPE      H18Z           27.6595929773       -1.2552958854       -0.2279751116  MEMB      31              0.0000000000
      3452        32  SLPC      N              23.1479599519       -8.3503800211       18.4830615490  MEMB      32              0.0000000000
      3453        32  SLPC      C13            23.2575457758       -9.0753822545       19.7585656226  MEMB      32              0.0000000000
      3454        32  SLPC      H13A           24.2286925744       -9.5459441166       19.8015247663  MEMB      32              0.0000000000
      3455        32  SLPC      H13B           23.2111542283       -8.3689493320       20.5741635471  MEMB      32              0.0000000000
      3456        32  SLPC      H13C           22.4831093694       -9.8113499863       19.9166790440  MEMB      32              0.0000000000
      3457        32  SLPC      C14            21.6646522722       -8.0304957477       18.1849601998  MEMB      32              0.0000000000
      3458        32  SLPC      H14A           21.2583712332       -7.4132454250       18.9725754314  MEMB      32              0.0000000000
      3459        32  SLPC      H14B           21.6107123870       -7.6003207618       17.1957990092  MEMB      32              0.0000000000
      3460        32  SLPC      H14C           21.2709520194       -9.0327535852       18.1020185421  MEMB      32              0.0000000000
      3461        32  SLPC      C15            23.7542487813       -9.0976496361       17.2986785797  MEMB      32              0.0000000000
      3462        32  SLPC      H15A           24.7813279576       -9.2357061313       17.6027325682  MEMB      32              0.0000000000
      3463        32  SLPC      H15B           23.1903411541      -10.0168419913       17.2395719294  MEMB      32              0.0000000000
      3464        32  SLPC      H15C           23.5624814715       -8.4532036529       16.4535071430  MEMB      32              0.0000000000
      3465        32  SLPC      C12            24.0242979765       -7.0921923238       18.7024314969  MEMB      32              0.0000000000
      3466        32  SLPC      H12A           25.0279486457       -7.4046328289       18.4545075757  MEMB      32              0.0000000000
      3467        32  SLPC      H12B           23.9882647826       -6.8272360019       19.7488059438  MEMB      32              0.0000000000
      3468        32  SLPC      C11            23.7097595399       -5.8660009957       17.8172316469  MEMB      32              0.0000000000
      3469        32  SLPC      H11A           24.4677702111       -5.0842815536       18.0378115470  MEMB      32              0.0000000000
      3470        32  SLPC      H11B           22.6819442327       -5.5136661704       18.0491299194  MEMB      32              0.0000000000
      3471        32  SLPC      P              23.3941570502       -5.1891760108       15.3466657902  MEMB      32              0.0000000000
      3472        32  SLPC      O13            22.4314704755       -5.9009045919       14.4448092413  MEMB      32              0.0000000000
      3473        32  SLPC      O14            23.0397964278       -3.9047992068       15.9191962423  MEMB      32              0.0000000000
      3474        32  SLPC      O12            23.8910116787       -6.1869817235       16.4590416525  MEMB      32              0.0000000000
      3475        32  SLPC      O11            24.7940786117       -5.0293428307       14.5853579742  MEMB      32              0.0000000000
      3476        32  SLPC      C1             25.9071978263       -4.3479544864       15.2291493582  MEMB      32              0.0000000000
      3477        32  SLPC      HA             25.7689491274       -3.2576460628       15.0665585295  MEMB      32              0.0000000000
      3478        32  SLPC      HB             26.0277361140       -4.3493869609       16.3335902079  MEMB      32              0.0000000000
      3479        32  SLPC      C2             27.1691735447       -4.9735071160       14.6520506436  MEMB      32              0.0000000000
      3480        32  SLPC      HS             27.9532828784       -4.2126489075       14.8535158131  MEMB      32              0.0000000000
      3481        32  SLPC      O21            26.9047211281       -5.2213068248       13.2167628953  MEMB      32              0.0000000000
      3482        32  SLPC      C21            27.2028327754       -4.0240200062       12.5559204732  MEMB      32              0.0000000000
      3483        32  SLPC      O22            27.6355881386       -3.0547955500       13.0264575314  MEMB      32              0.0000000000
      3484        32  SLPC      C22            26.6954533128       -4.1484975187       11.0934660335  MEMB      32              0.0000000000
      3485        32  SLPC      H2R            26.2176260411       -5.1494714047       11.0298000220  MEMB      32              0.0000000000
      3486        32  SLPC      H2S            25.8709132201       -3.4170246646       10.9541748991  MEMB      32              0.0000000000
      3487        32  SLPC      C3             27.6598464095       -6.2841064009       15.2782649349  MEMB      32              0.0000000000
      3488        32  SLPC      HX             27.7574573988       -5.9766000392       16.3413891024  MEMB      32              0.0000000000
      3489        32  SLPC      HY             28.6550718049       -6.6980014045       15.0089357545  MEMB      32              0.0000000000
      3490        32  SLPC      O31            26.6045045478       -7.2673220704       15.3369315931  MEMB      32              0.0000000000
      3491        32  SLPC      C31            26.4341488471       -8.0750575043       14.3171345228  MEMB      32              0.0000000000
      3492        32  SLPC      O32            27.1738000414       -8.0275857666       13.3002111443  MEMB      32              0.0000000000
      3493        32  SLPC      C32            25.2610708746       -8.9019388143       14.4912040013  MEMB      32              0.0000000000
      3494        32  SLPC      H2X            24.3121845372       -8.3602377731       14.6924394763  MEMB      32              0.0000000000
      3495        32  SLPC      H2Y            25.4833173619       -9.5754324307       15.3463843679  MEMB      32              0.0000000000
      3496        32  SLPC      C23            27.8580697108       -3.9400035148       10.0892239687  MEMB      32              0.0000000000
      3497        32  SLPC      H3R            28.6550333390       -3.2770728088       10.4888396862  MEMB      32              0.0000000000
      3498        32  SLPC      H3S            27.3839881428       -3.5059956438        9.1830205392  MEMB      32              0.0000000000
      3499        32  SLPC      C24            28.5150034443       -5.2113331411        9.6111352684  MEMB      32              0.0000000000
      3500        32  SLPC      H4R            27.8167362304       -5.7604018134        8.9438516292  MEMB      32              0.0000000000
      3501        32  SLPC      H4S            28.9882056581       -5.8523928446       10.3853723516  MEMB      32              0.0000000000
      3502        32  SLPC      C25            29.6992436879       -5.0629662903        8.6575968758  MEMB      32              0.0000000000
      3503        32  SLPC      H5R            30.2627336478       -6.0086159220        8.5074415929  MEMB      32              0.0000000000
      3504        32  SLPC      H5S            30.4914379480       -4.3831754119        9.0379042253  MEMB      32              0.0000000000
      3505        32  SLPC      C26            29.4794583502       -4.5470651993        7.1801419433  MEMB      32              0.0000000000
      3506        32  SLPC      H6R            29.0600049152       -3.5224848436        7.2729576755  MEMB      32              0.0000000000
      3507        32  SLPC      H6S            28.7025113791       -5.1891512931        6.7128093197  MEMB      32              0.0000000000
      3508        32  SLPC      C27            30.7464356686       -4.4244781322        6.2845499548  MEMB      32              0.0000000000
      3509        32  SLPC      H7R            31.1997020219       -5.4388103887        6.2836446400  MEMB      32              0.0000000000
      3510        32  SLPC      H7S            31.4643935815       -3.6690759354        6.6695508542  MEMB      32              0.0000000000
      3511        32  SLPC      C28            30.3271886582       -4.1403167301        4.8461051718  MEMB      32              0.0000000000
      3512        32  SLPC      H8R            29.7069173492       -3.2290514719        4.9845958031  MEMB      32              0.0000000000
      3513        32  SLPC      H8S            29.5880470064       -4.9182027213        4.5582090582  MEMB      32              0.0000000000
      3514        32  SLPC      C29            31.3594337765       -3.9244494374        3.7897838896  MEMB      32              0.0000000000
      3515        32  SLPC      H9R            32.1423468501       -3.1747778159        3.9769745718  MEMB      32              0.0000000000
      3516        32  SLPC      C210           31.4405873209       -4.5457013620        2.5903148643  MEMB      32              0.0000000000
      3517        32  SLPC      H10R           32.3413739318       -4.2889736692        2.0135356199  MEMB      32              0.0000000000
      3518        32  SLPC      C211           30.5949281719       -5.6084552601        1.9191788949  MEMB      32              0.0000000000
      3519        32  SLPC      H11R           30.7746770993       -5.5952121909        0.8228963826  MEMB      32              0.0000000000
      3520        32  SLPC      H11S           29.5195905246       -5.3293213293        1.9118306371  MEMB      32              0.0000000000
      3521        32  SLPC      C212           30.8517341274       -7.0553689312        2.4372133902  MEMB      32              0.0000000000
      3522        32  SLPC      H12R           31.8770161959       -7.4221349114        2.2813952307  MEMB      32              0.0000000000
      3523        32  SLPC      C213           29.8931120333       -7.9401249179        2.7852548374  MEMB      32              0.0000000000
      3524        32  SLPC      H13R           30.2231872322       -8.9152043924        3.1729016502  MEMB      32              0.0000000000
      3525        32  SLPC      C214           28.3952025363       -7.5907799164        2.7198283623  MEMB      32              0.0000000000
      3526        32  SLPC      H14R           28.0851971688       -6.5349274422        2.8727769414  MEMB      32              0.0000000000
      3527        32  SLPC      H14S           27.8919449731       -8.0642789843        3.5898000120  MEMB      32              0.0000000000
      3528        32  SLPC      C215           27.6305674490       -8.1278395172        1.5043512308  MEMB      32              0.0000000000
      3529        32  SLPC      H15R           26.5396559882       -7.9383487249        1.5956005061  MEMB      32              0.0000000000
      3530        32  SLPC      H15S           27.8521580535       -9.1956295862        1.2921181695  MEMB      32              0.0000000000
      3531        32  SLPC      C216           28.0096472637       -7.4624051635        0.1776879185  MEMB      32              0.0000000000
      3532        32  SLPC      H16R           29.1082874226       -7.4449490849        0.0133562182  MEMB      32              0.0000000000
      3533        32  SLPC      H16S           27.7214330332       -6.3983268250        0.3154948916  MEMB      32              0.0000000000
      3534        32  SLPC      C217           27.2646531434       -8.0085758911       -1.0272103594  MEMB      32              0.0000000000
      3535        32  SLPC      H17R           26.2738296669       -8.1928014876       -0.5596107496  MEMB      32              0.0000000000
      3536        32  SLPC      H17S           27.7511090645       -8.9653245372       -1.3141140580  MEMB      32              0.0000000000
      3537        32  SLPC      C218           26.9534817003       -7.0587252339       -2.1706778565  MEMB      32              0.0000000000
      3538        32  SLPC      H18R           26.0510556166       -6.4621263129       -1.9176601759  MEMB      32              0.0000000000
      3539        32  SLPC      H18S           26.8285374138       -7.6604735993       -3.0962093417  MEMB      32              0.0000000000
      3540        32  SLPC      H18T           27.7979257178       -6.3621212186       -2.3603566801  MEMB      32              0.0000000000
      3541        32  SLPC      C33            25.0927136010       -9.8757750429       13.3403684087  MEMB      32              0.0000000000
      3542        32  SLPC      H3X            24.6261043705      -10.7581075594       13.8283091417  MEMB      32              0.0000000000
      3543        32  SLPC      H3Y            25.9502048763      -10.2184965902       12.7226534374  MEMB      32              0.0000000000
      3544        32  SLPC      C34            23.8513367441       -9.3734177415       12.4677051928  MEMB      32              0.0000000000
      3545        32  SLPC      H4X            22.9545839708       -9.4028044992       13.1229086950  MEMB      32              0.0000000000
      3546        32  SLPC      H4Y            23.7181645384      -10.1442914164       11.6788197597  MEMB      32              0.0000000000
      3547        32  SLPC      C35            24.0267930703       -8.0890882810       11.7288520917  MEMB      32              0.0000000000
      3548        32  SLPC      H5X            25.0872700660       -8.1212416342       11.3991918964  MEMB      32              0.0000000000
      3549        32  SLPC      H5Y            23.9743744074       -7.2488310591       12.4537941721  MEMB      32              0.0000000000
      3550        32  SLPC      C36            23.2170914689       -7.8668980208       10.5721894648  MEMB      32              0.0000000000
      3551        32  SLPC      H6X            22.4819840753       -7.0535632224       10.7522583342  MEMB      32              0.0000000000
      3552        32  SLPC      H6Y            22.7363461083       -8.8530230339       10.3967976206  MEMB      32              0.0000000000
      3553        32  SLPC      C37            24.1138037938       -7.5584585121        9.2775918304  MEMB      32              0.0000000000
      3554        32  SLPC      H7X            24.8020347271       -8.4258670357        9.1866977754  MEMB      32              0.0000000000
      3555        32  SLPC      H7Y            24.7576472231       -6.6898456129        9.5331270897  MEMB      32              0.0000000000
      3556        32  SLPC      C38            23.2588168814       -7.3159866577        8.0928114331  MEMB      32              0.0000000000
      3557        32  SLPC      H8X            22.5615130516       -6.4597755683        8.2152489861  MEMB      32              0.0000000000
      3558        32  SLPC      H8Y            22.5684877672       -8.1752476398        7.9533934065  MEMB      32              0.0000000000
      3559        32  SLPC      C39            24.2268156971       -7.0839198353        6.8657679176  MEMB      32              0.0000000000
      3560        32  SLPC      H9X            23.7431503495       -7.4048196390        5.9184492446  MEMB      32              0.0000000000
      3561        32  SLPC      H9Y            25.1512175276       -7.6724467653        7.0486288975  MEMB      32              0.0000000000
      3562        32  SLPC      C310           24.5416667779       -5.5684022929        6.9232391477  MEMB      32              0.0000000000
      3563        32  SLPC      H10X           25.0768820066       -5.2303605243        7.8362523963  MEMB      32              0.0000000000
      3564        32  SLPC      H10Y           23.6232712645       -4.9553841318        6.8004408802  MEMB      32              0.0000000000
      3565        32  SLPC      C311           25.4710007492       -5.2638386539        5.6595045897  MEMB      32              0.0000000000
      3566        32  SLPC      H11X           24.8931777117       -5.3703342390        4.7165841078  MEMB      32              0.0000000000
      3567        32  SLPC      H11Y           26.3036347228       -5.9986562374        5.6924404413  MEMB      32              0.0000000000
      3568        32  SLPC      C312           26.1395092204       -3.8948635958        5.7057548670  MEMB      32              0.0000000000
      3569        32  SLPC      H12X           26.8892349760       -3.7704614482        4.8953496838  MEMB      32              0.0000000000
      3570        32  SLPC      H12Y           26.7270407825       -3.7943283627        6.6433155154  MEMB      32              0.0000000000
      3571        32  SLPC      C313           25.1177682751       -2.6917953089        5.7244568460  MEMB      32              0.0000000000
      3572        32  SLPC      H13X           25.7466485544       -1.7812309838        5.8229599368  MEMB      32              0.0000000000
      3573        32  SLPC      H13Y           24.4568975367       -2.8659690796        6.6003763834  MEMB      32              0.0000000000
      3574        32  SLPC      C314           24.2347799721       -2.5398262306        4.4352153437  MEMB      32              0.0000000000
      3575        32  SLPC      H14X           23.4374292571       -1.7698775231        4.5109247393  MEMB      32              0.0000000000
      3576        32  SLPC      H14Y           23.6377541340       -3.4468592411        4.2003278589  MEMB      32              0.0000000000
      3577        32  SLPC      C315           25.0819325315       -2.2908432040        3.1640448182  MEMB      32              0.0000000000
      3578        32  SLPC      H15X           25.9813818161       -2.9428943529        3.1521677087  MEMB      32              0.0000000000
      3579        32  SLPC      H15Y           25.5189431429       -1.2741929367        3.2628622091  MEMB      32              0.0000000000
      3580        32  SLPC      C316           24.3127729443       -2.3548292547        1.7842465015  MEMB      32              0.0000000000
      3581        32  SLPC      H16X           23.5265674059       -1.5704841051        1.8159424734  MEMB      32              0.0000000000
      3582        32  SLPC      H16Y           23.7516985607       -3.3113332451        1.8521929632  MEMB      32              0.0000000000
      3583        32  SLPC      C317           25.1775839884       -2.3187842081        0.5221422824  MEMB      32              0.0000000000
      3584        32  SLPC      H17X           25.8195397911       -1.4151883623        0.4464505910  MEMB      32              0.0000000000
      3585        32  SLPC      H17Y           24.4229407935       -2.2584510327       -0.2909970915  MEMB      32              0.0000000000
      3586        32  SLPC      C318           26.0025768704       -3.6084159099        0.2420311132  MEMB      32              0.0000000000
      3587        32  SLPC      H18X           26.4135806420       -3.6986470028       -0.7861986937  MEMB      32              0.0000000000
      3588        32  SLPC      H18Y           25.3350277265       -4.4916251173        0.3349811670  MEMB      32              0.0000000000
      3589        32  SLPC      H18Z           26.8163406462       -3.6259847111        0.9982054755  MEMB      32              0.0000000000
      3590        33  CHL1      C3              8.5708029638      -22.8864662406       17.2955700000  MEMB      33              0.0000000000
      3591        33  CHL1      H3              7.6276576533      -23.4735477537       17.3071400000  MEMB      33              0.0000000000
      3592        33  CHL1      O3              8.9294488362      -22.7561813594       18.7044300000  MEMB      33              0.0000000000
      3593        33  CHL1      H3'             8.9127929594      -23.6850242644       18.9464400000  MEMB      33              0.0000000000
      3594        33  CHL1      C4              9.6369658382      -23.5806916077       16.5327600000  MEMB      33              0.0000000000
      3595        33  CHL1      H4A            10.6232004134      -23.0901720549       16.6779100000  MEMB      33              0.0000000000
      3596        33  CHL1      H4B             9.7753950422      -24.5078833822       17.1289900000  MEMB      33              0.0000000000
      3597        33  CHL1      C5              9.3040275605      -23.7824485399       15.0781600000  MEMB      33              0.0000000000
      3598        33  CHL1      C6              9.0862343224      -24.9677316740       14.4528300000  MEMB      33              0.0000000000
      3599        33  CHL1      H6              9.2242312836      -25.9092181318       15.0047100000  MEMB      33              0.0000000000
      3600        33  CHL1      C7              8.8048224998      -24.9288573153       12.9473700000  MEMB      33              0.0000000000
      3601        33  CHL1      H7A             9.4173827299      -25.8033361574       12.6401300000  MEMB      33              0.0000000000
      3602        33  CHL1      H7B             7.7212653067      -25.1071986016       12.7788100000  MEMB      33              0.0000000000
      3603        33  CHL1      C8              9.1672760100      -23.6578761616       12.2797800000  MEMB      33              0.0000000000
      3604        33  CHL1      H8             10.2731676665      -23.5687067932       12.2218000000  MEMB      33              0.0000000000
      3605        33  CHL1      C14             8.6535849039      -23.7383614648       10.8812300000  MEMB      33              0.0000000000
      3606        33  CHL1      H14             7.5553406899      -23.8331087919       11.0198100000  MEMB      33              0.0000000000
      3607        33  CHL1      C15             9.0247499173      -24.9735767429       10.0348900000  MEMB      33              0.0000000000
      3608        33  CHL1      H15A           10.1308653909      -25.0728898694       10.0038400000  MEMB      33              0.0000000000
      3609        33  CHL1      H15B            8.6404302676      -25.9870895046       10.2786400000  MEMB      33              0.0000000000
      3610        33  CHL1      C16             8.5971992322      -24.6133032577        8.5997000000  MEMB      33              0.0000000000
      3611        33  CHL1      H16A            9.4540333737      -24.7526588201        7.9063500000  MEMB      33              0.0000000000
      3612        33  CHL1      H16B            7.7611762213      -25.2243284176        8.1971600000  MEMB      33              0.0000000000
      3613        33  CHL1      C17             8.2398756097      -23.0722082959        8.6584200000  MEMB      33              0.0000000000
      3614        33  CHL1      H17             7.1591155266      -23.2131192339        8.8738600000  MEMB      33              0.0000000000
      3615        33  CHL1      C13             8.8242096452      -22.5407582084        9.9844200000  MEMB      33              0.0000000000
      3616        33  CHL1      C18            10.3500513205      -22.2451908395        9.6449600000  MEMB      33              0.0000000000
      3617        33  CHL1      H18A           10.7858325046      -23.1052214373        9.0929100000  MEMB      33              0.0000000000
      3618        33  CHL1      H18B           10.4306016734      -21.3623922099        8.9752500000  MEMB      33              0.0000000000
      3619        33  CHL1      H18C           10.8473226495      -22.0612162798       10.6212800000  MEMB      33              0.0000000000
      3620        33  CHL1      C12             8.0696438942      -21.4096641736       10.6440700000  MEMB      33              0.0000000000
      3621        33  CHL1      H12A            8.3362855194      -20.4379549351       10.1760900000  MEMB      33              0.0000000000
      3622        33  CHL1      H12B            6.9813900905      -21.6296685257       10.6843000000  MEMB      33              0.0000000000
      3623        33  CHL1      C11             8.5659864339      -21.1635133311       12.1105500000  MEMB      33              0.0000000000
      3624        33  CHL1      H11A            9.6430694766      -20.9259209235       11.9772600000  MEMB      33              0.0000000000
      3625        33  CHL1      H11B            7.9818040769      -20.3223900329       12.5413100000  MEMB      33              0.0000000000
      3626        33  CHL1      C9              8.5137540006      -22.4690435845       12.9940300000  MEMB      33              0.0000000000
      3627        33  CHL1      H9              7.4150450691      -22.6336067390       12.9856400000  MEMB      33              0.0000000000
      3628        33  CHL1      C10             9.0107038088      -22.3950591386       14.4372700000  MEMB      33              0.0000000000
      3629        33  CHL1      C19            10.2983039150      -21.5103260411       14.4501900000  MEMB      33              0.0000000000
      3630        33  CHL1      H19A           10.9983614165      -21.8158853871       13.6434300000  MEMB      33              0.0000000000
      3631        33  CHL1      H19B            9.9478213437      -20.4708522292       14.2741700000  MEMB      33              0.0000000000
      3632        33  CHL1      H19C           10.7311356724      -21.4437485893       15.4712400000  MEMB      33              0.0000000000
      3633        33  CHL1      C1              7.8850615455      -21.6386109206       15.2096500000  MEMB      33              0.0000000000
      3634        33  CHL1      H1A             7.6485879759      -20.6559714690       14.7483200000  MEMB      33              0.0000000000
      3635        33  CHL1      H1B             6.9687915545      -22.2662442289       15.1807100000  MEMB      33              0.0000000000
      3636        33  CHL1      C2              8.2951954821      -21.4605585270       16.6866900000  MEMB      33              0.0000000000
      3637        33  CHL1      H2A             7.4501235401      -20.9195562393       17.1636600000  MEMB      33              0.0000000000
      3638        33  CHL1      H2B             9.1757733946      -20.7937910848       16.8063700000  MEMB      33              0.0000000000
      3639        33  CHL1      C20             8.3388328767      -22.3823988658        7.2989400000  MEMB      33              0.0000000000
      3640        33  CHL1      H20             9.4028839061      -22.3063223856        6.9885600000  MEMB      33              0.0000000000
      3641        33  CHL1      C21             7.6824524367      -21.0777451880        7.2878600000  MEMB      33              0.0000000000
      3642        33  CHL1      H21A            7.2047015765      -20.8060098902        6.3223400000  MEMB      33              0.0000000000
      3643        33  CHL1      H21B            8.3717040025      -20.2521427287        7.5664700000  MEMB      33              0.0000000000
      3644        33  CHL1      H21C            6.8044130316      -21.0280561795        7.9667600000  MEMB      33              0.0000000000
      3645        33  CHL1      C22             7.7722840245      -23.1783614773        6.0215400000  MEMB      33              0.0000000000
      3646        33  CHL1      H22A            7.9792667192      -24.2691223587        6.0629600000  MEMB      33              0.0000000000
      3647        33  CHL1      H22B            6.6642372288      -23.1102299863        5.9778500000  MEMB      33              0.0000000000
      3648        33  CHL1      C23             8.2868039378      -22.6181024789        4.7199200000  MEMB      33              0.0000000000
      3649        33  CHL1      H23A            7.6725373995      -21.7174826208        4.5057400000  MEMB      33              0.0000000000
      3650        33  CHL1      H23B            9.3212337352      -22.2740852317        4.9342100000  MEMB      33              0.0000000000
      3651        33  CHL1      C24             8.1877456844      -23.6343866620        3.5281800000  MEMB      33              0.0000000000
      3652        33  CHL1      H24A            7.3295699989      -24.3057553677        3.7452500000  MEMB      33              0.0000000000
      3653        33  CHL1      H24B            8.0031206319      -23.0711935661        2.5884700000  MEMB      33              0.0000000000
      3654        33  CHL1      C25             9.3877020997      -24.5612676581        3.3086000000  MEMB      33              0.0000000000
      3655        33  CHL1      H25             9.7983338943      -25.0085768977        4.2389900000  MEMB      33              0.0000000000
      3656        33  CHL1      C26             9.1289195603      -25.7350467854        2.4075100000  MEMB      33              0.0000000000
      3657        33  CHL1      H26A            8.3745465783      -26.3529872885        2.9398500000  MEMB      33              0.0000000000
      3658        33  CHL1      H26B            8.8228211421      -25.3185658334        1.4240600000  MEMB      33              0.0000000000
      3659        33  CHL1      H26C           10.1229263652      -26.2127386545        2.2730300000  MEMB      33              0.0000000000
      3660        33  CHL1      C27            10.5917028893      -23.8267837668        2.6217100000  MEMB      33              0.0000000000
      3661        33  CHL1      H27A           10.3065414532      -23.1911604309        1.7562700000  MEMB      33              0.0000000000
      3662        33  CHL1      H27B           11.1179834533      -23.1035710520        3.2807300000  MEMB      33              0.0000000000
      3663        33  CHL1      H27C           11.4182458530      -24.4961312136        2.3005700000  MEMB      33              0.0000000000
      3664        34  SAPE      N              13.4594748479      -18.0135018624       18.8313903325  MEMB      34              0.0000000000
      3665        34  SAPE      HN1            12.6585474624      -17.6302208240       18.2899008932  MEMB      34              0.0000000000
      3666        34  SAPE      HN2            13.9086909374      -18.6210917764       18.1167997886  MEMB      34              0.0000000000
      3667        34  SAPE      HN3            13.1155733800      -18.6204670370       19.6027041027  MEMB      34              0.0000000000
      3668        34  SAPE      C12            14.4561769541      -17.0990827488       19.3302275858  MEMB      34              0.0000000000
      3669        34  SAPE      H12A           14.1044064536      -16.9444708122       20.3726640062  MEMB      34              0.0000000000
      3670        34  SAPE      H12B           14.4462962092      -16.1144979201       18.8156246777  MEMB      34              0.0000000000
      3671        34  SAPE      C11            15.8353040136      -17.7626828117       19.2727890848  MEMB      34              0.0000000000
      3672        34  SAPE      H11A           16.5958621706      -17.0383587584       19.6350418718  MEMB      34              0.0000000000
      3673        34  SAPE      H11B           16.0832226077      -17.9406121899       18.2045201376  MEMB      34              0.0000000000
      3674        34  SAPE      P              17.2422193419      -19.6389490092       20.6058753464  MEMB      34              0.0000000000
      3675        34  SAPE      O13            18.3430361173      -18.8376926233       21.2370743893  MEMB      34              0.0000000000
      3676        34  SAPE      O14            16.7626754283      -20.8187354202       21.3445410676  MEMB      34              0.0000000000
      3677        34  SAPE      O12            15.9811173659      -18.8092482842       20.1958217609  MEMB      34              0.0000000000
      3678        34  SAPE      O11            17.5686375792      -20.0990727827       19.1822804696  MEMB      34              0.0000000000
      3679        34  SAPE      C1             18.5605604317      -21.0292220229       18.7842972076  MEMB      34              0.0000000000
      3680        34  SAPE      HA             19.2469687210      -21.3850875612       19.5821218947  MEMB      34              0.0000000000
      3681        34  SAPE      HB             18.0458786708      -21.9376969434       18.4046960781  MEMB      34              0.0000000000
      3682        34  SAPE      C2             19.4305690262      -20.5807931287       17.6634608643  MEMB      34              0.0000000000
      3683        34  SAPE      HS             20.4454990490      -20.5259756657       18.1120508561  MEMB      34              0.0000000000
      3684        34  SAPE      O21            18.9311002403      -19.3469297756       17.2267098817  MEMB      34              0.0000000000
      3685        34  SAPE      C21            19.8312725734      -18.4203150774       16.9024283521  MEMB      34              0.0000000000
      3686        34  SAPE      O22            21.0368437970      -18.6170210373       16.8897811443  MEMB      34              0.0000000000
      3687        34  SAPE      C22            19.1621630030      -17.0573438339       16.6954332506  MEMB      34              0.0000000000
      3688        34  SAPE      H2R            18.2806880476      -17.2231775953       16.0398248934  MEMB      34              0.0000000000
      3689        34  SAPE      H2S            18.8677677213      -16.8217940530       17.7405021074  MEMB      34              0.0000000000
      3690        34  SAPE      C3             19.5058019973      -21.5825869976       16.5385265351  MEMB      34              0.0000000000
      3691        34  SAPE      HX             20.0702161720      -22.4750775597       16.8838071341  MEMB      34              0.0000000000
      3692        34  SAPE      HY             20.0983994142      -21.0909104612       15.7376502584  MEMB      34              0.0000000000
      3693        34  SAPE      O31            18.2117648626      -21.9677208241       15.9686105613  MEMB      34              0.0000000000
      3694        34  SAPE      C31            18.2397251554      -22.9235269763       15.0480352360  MEMB      34              0.0000000000
      3695        34  SAPE      O32            19.2648389394      -23.4054813023       14.5916703244  MEMB      34              0.0000000000
      3696        34  SAPE      C32            16.7566753692      -23.1697604917       14.5903742501  MEMB      34              0.0000000000
      3697        34  SAPE      H2X            16.1065384140      -22.7921695630       15.4083398763  MEMB      34              0.0000000000
      3698        34  SAPE      H2Y            16.7405861473      -24.2802612372       14.5612160729  MEMB      34              0.0000000000
      3699        34  SAPE      C23            20.1297464824      -16.0196774766       16.1074225090  MEMB      34              0.0000000000
      3700        34  SAPE      H3R            21.1111422127      -16.2279360306       16.5847191955  MEMB      34              0.0000000000
      3701        34  SAPE      H3S            19.8516333344      -15.0341081349       16.5382672375  MEMB      34              0.0000000000
      3702        34  SAPE      C24            20.1658040846      -15.8204575117       14.5697055346  MEMB      34              0.0000000000
      3703        34  SAPE      H4R            20.1973224968      -14.7562487990       14.2522349798  MEMB      34              0.0000000000
      3704        34  SAPE      H4S            19.1686422736      -16.1897336599       14.2477982827  MEMB      34              0.0000000000
      3705        34  SAPE      C25            21.2713097541      -16.7450969254       13.9541106557  MEMB      34              0.0000000000
      3706        34  SAPE      H5R            22.2196975184      -16.4358780975       14.4177313356  MEMB      34              0.0000000000
      3707        34  SAPE      C26            21.1875776341      -17.7992210973       13.0512464285  MEMB      34              0.0000000000
      3708        34  SAPE      H6R            22.1124363755      -18.2954916488       12.7220788452  MEMB      34              0.0000000000
      3709        34  SAPE      C27            19.8876509826      -18.3159204937       12.4004656505  MEMB      34              0.0000000000
      3710        34  SAPE      H7R            19.5854601922      -17.5992194523       11.6071551497  MEMB      34              0.0000000000
      3711        34  SAPE      H7S            19.1100836567      -18.4785677269       13.1771610020  MEMB      34              0.0000000000
      3712        34  SAPE      C28            20.0628501053      -19.6834346189       11.7549447465  MEMB      34              0.0000000000
      3713        34  SAPE      H8R            19.9808707219      -20.5053446395       12.4814045881  MEMB      34              0.0000000000
      3714        34  SAPE      C29            20.3830163807      -19.9738789982       10.4934129337  MEMB      34              0.0000000000
      3715        34  SAPE      H9R            20.5923640944      -21.0315639747       10.2755221197  MEMB      34              0.0000000000
      3716        34  SAPE      C210           20.6599336396      -18.9501579346        9.3637111118  MEMB      34              0.0000000000
      3717        34  SAPE      H10R           21.4446897125      -19.2818513191        8.6506479009  MEMB      34              0.0000000000
      3718        34  SAPE      H10S           21.2077994079      -18.0856573713        9.7959179768  MEMB      34              0.0000000000
      3719        34  SAPE      C211           19.4434572878      -18.4925438782        8.6129738999  MEMB      34              0.0000000000
      3720        34  SAPE      H11R           18.4608759874      -18.9087395933        8.8800227756  MEMB      34              0.0000000000
      3721        34  SAPE      C212           19.5295746014      -17.5507416203        7.6889975344  MEMB      34              0.0000000000
      3722        34  SAPE      H12R           18.5044316960      -17.3333489674        7.3545991480  MEMB      34              0.0000000000
      3723        34  SAPE      C213           20.7692922680      -16.7739563942        7.1691749225  MEMB      34              0.0000000000
      3724        34  SAPE      H13R           21.7057819874      -17.3305067622        7.3872568009  MEMB      34              0.0000000000
      3725        34  SAPE      H13S           20.7679928720      -15.8811452933        7.8303917484  MEMB      34              0.0000000000
      3726        34  SAPE      C214           20.6896685183      -16.4358863417        5.7098577658  MEMB      34              0.0000000000
      3727        34  SAPE      H14R           21.1005816094      -15.4231148798        5.5855814662  MEMB      34              0.0000000000
      3728        34  SAPE      C215           20.3791634552      -17.1745185071        4.6014568340  MEMB      34              0.0000000000
      3729        34  SAPE      H15R           20.4563739314      -16.7021890054        3.6110301530  MEMB      34              0.0000000000
      3730        34  SAPE      C216           19.9825006448      -18.6428663107        4.5856948823  MEMB      34              0.0000000000
      3731        34  SAPE      H16R           19.9427374248      -18.7712859149        3.4828582671  MEMB      34              0.0000000000
      3732        34  SAPE      H16S           18.9704819302      -18.7975022167        5.0172339431  MEMB      34              0.0000000000
      3733        34  SAPE      C217           20.9190580500      -19.6322033515        5.2269623628  MEMB      34              0.0000000000
      3734        34  SAPE      H17R           20.7719818536      -19.4864743082        6.3184992128  MEMB      34              0.0000000000
      3735        34  SAPE      H17S           22.0124894296      -19.4826099077        5.0990926342  MEMB      34              0.0000000000
      3736        34  SAPE      C218           20.5696665825      -21.0330168634        4.8059286966  MEMB      34              0.0000000000
      3737        34  SAPE      H18R           19.5061126032      -21.2023130576        5.0788989222  MEMB      34              0.0000000000
      3738        34  SAPE      H18S           21.1726132647      -21.6856924811        5.4728553478  MEMB      34              0.0000000000
      3739        34  SAPE      C219           20.9359073417      -21.3363244237        3.3762530911  MEMB      34              0.0000000000
      3740        34  SAPE      H19R           22.0438484945      -21.3981777500        3.3218323960  MEMB      34              0.0000000000
      3741        34  SAPE      H19S           20.5252927851      -20.5703859881        2.6841154655  MEMB      34              0.0000000000
      3742        34  SAPE      C220           20.2820955085      -22.6164001581        2.8195333820  MEMB      34              0.0000000000
      3743        34  SAPE      H20R           19.1773136319      -22.5320453627        2.9011576711  MEMB      34              0.0000000000
      3744        34  SAPE      H20S           20.5342859077      -23.4628402794        3.4935216960  MEMB      34              0.0000000000
      3745        34  SAPE      H20T           20.5820971746      -22.9073460496        1.7901294768  MEMB      34              0.0000000000
      3746        34  SAPE      C33            16.4512468698      -22.7605275966       13.1309637182  MEMB      34              0.0000000000
      3747        34  SAPE      H3X            16.8680016396      -23.4931588402       12.4071626868  MEMB      34              0.0000000000
      3748        34  SAPE      H3Y            17.1068117359      -21.8896271084       12.9162828421  MEMB      34              0.0000000000
      3749        34  SAPE      C34            14.8970307663      -22.3778555837       12.8697625779  MEMB      34              0.0000000000
      3750        34  SAPE      H4X            14.1493893305      -23.1758874444       13.0659737509  MEMB      34              0.0000000000
      3751        34  SAPE      H4Y            14.7900202309      -22.1409312379       11.7896066884  MEMB      34              0.0000000000
      3752        34  SAPE      C35            14.4402249355      -21.1985623124       13.7867191523  MEMB      34              0.0000000000
      3753        34  SAPE      H5X            14.4696082944      -21.6359650724       14.8075700340  MEMB      34              0.0000000000
      3754        34  SAPE      H5Y            13.3829593666      -20.9473692643       13.5556076267  MEMB      34              0.0000000000
      3755        34  SAPE      C36            15.2015720632      -19.8619389376       13.6395802558  MEMB      34              0.0000000000
      3756        34  SAPE      H6X            16.2846303200      -19.9471143637       13.8720684687  MEMB      34              0.0000000000
      3757        34  SAPE      H6Y            14.8323495770      -19.1664541310       14.4233512631  MEMB      34              0.0000000000
      3758        34  SAPE      C37            15.1802589619      -19.3483097509       12.2418723415  MEMB      34              0.0000000000
      3759        34  SAPE      H7X            14.1607527632      -19.3075301555       11.8022527118  MEMB      34              0.0000000000
      3760        34  SAPE      H7Y            15.6774862715      -20.1863028973       11.7081557502  MEMB      34              0.0000000000
      3761        34  SAPE      C38            15.9652706976      -18.0384262601       11.9405350871  MEMB      34              0.0000000000
      3762        34  SAPE      H8X            17.0049847104      -18.0631690627       12.3313083453  MEMB      34              0.0000000000
      3763        34  SAPE      H8Y            15.4466499931      -17.3232968724       12.6142885799  MEMB      34              0.0000000000
      3764        34  SAPE      C39            16.0056432496      -17.6582311588       10.5056159017  MEMB      34              0.0000000000
      3765        34  SAPE      H9X            16.4295421948      -18.5232007498        9.9520292553  MEMB      34              0.0000000000
      3766        34  SAPE      H9Y            16.6349218116      -16.7527024030       10.3701643726  MEMB      34              0.0000000000
      3767        34  SAPE      C310           14.5742414322      -17.2862770483        9.9361770801  MEMB      34              0.0000000000
      3768        34  SAPE      H10X           14.3231707337      -16.3949198595       10.5499906201  MEMB      34              0.0000000000
      3769        34  SAPE      H10Y           13.8533025804      -18.1190885988       10.0810659762  MEMB      34              0.0000000000
      3770        34  SAPE      C311           14.4873366927      -16.9452241260        8.4547652147  MEMB      34              0.0000000000
      3771        34  SAPE      H11X           15.4179678628      -16.4113748624        8.1662317595  MEMB      34              0.0000000000
      3772        34  SAPE      H11Y           13.6019401629      -16.2995514933        8.2717342889  MEMB      34              0.0000000000
      3773        34  SAPE      C312           14.4205502419      -18.2155328896        7.5327499831  MEMB      34              0.0000000000
      3774        34  SAPE      H12X           13.5829186591      -18.8970667026        7.7939134921  MEMB      34              0.0000000000
      3775        34  SAPE      H12Y           15.3120578051      -18.8233601704        7.7974785001  MEMB      34              0.0000000000
      3776        34  SAPE      C313           14.3937402048      -17.8903464529        6.0963616464  MEMB      34              0.0000000000
      3777        34  SAPE      H13X           13.8107266303      -16.9741270151        5.8619288917  MEMB      34              0.0000000000
      3778        34  SAPE      H13Y           13.7082599380      -18.6707989248        5.7022402944  MEMB      34              0.0000000000
      3779        34  SAPE      C314           15.7460454635      -17.8749789849        5.3237884218  MEMB      34              0.0000000000
      3780        34  SAPE      H14X           16.5328619728      -18.3594305249        5.9406736649  MEMB      34              0.0000000000
      3781        34  SAPE      H14Y           15.9962416418      -16.8100748816        5.1296182403  MEMB      34              0.0000000000
      3782        34  SAPE      C315           15.7756376535      -18.5485134001        3.8829670056  MEMB      34              0.0000000000
      3783        34  SAPE      H15X           16.7938777159      -18.5369643463        3.4386968854  MEMB      34              0.0000000000
      3784        34  SAPE      H15Y           15.0847768095      -17.9255894971        3.2755148185  MEMB      34              0.0000000000
      3785        34  SAPE      C316           15.4039118201      -20.0504185000        3.9057785989  MEMB      34              0.0000000000
      3786        34  SAPE      H16X           14.3212738095      -20.1253055881        4.1437035030  MEMB      34              0.0000000000
      3787        34  SAPE      H16Y           15.9810400036      -20.6153936535        4.6686988950  MEMB      34              0.0000000000
      3788        34  SAPE      C317           15.5942161967      -20.6707722867        2.5473004854  MEMB      34              0.0000000000
      3789        34  SAPE      H17X           16.6220124207      -20.4386323732        2.1950689122  MEMB      34              0.0000000000
      3790        34  SAPE      H17Y           14.8758392555      -20.2522190234        1.8103694432  MEMB      34              0.0000000000
      3791        34  SAPE      C318           15.4220483725      -22.2018313776        2.6228703749  MEMB      34              0.0000000000
      3792        34  SAPE      H18X           14.4400083550      -22.3616940208        3.1172012944  MEMB      34              0.0000000000
      3793        34  SAPE      H18Y           16.2205905421      -22.6609167479        3.2440721291  MEMB      34              0.0000000000
      3794        34  SAPE      H18Z           15.4666290598      -22.6522669180        1.6082572948  MEMB      34              0.0000000000
      3795        35  CHL1      C3            -24.7776929027       -0.8585352808       17.3008500000  MEMB      35              0.0000000000
      3796        35  CHL1      H3            -25.6777626782       -1.5076267260       17.2470900000  MEMB      35              0.0000000000
      3797        35  CHL1      O3            -24.4754588973       -0.8583714172       18.6991500000  MEMB      35              0.0000000000
      3798        35  CHL1      H3'           -24.2664453060        0.0528204926       18.9173900000  MEMB      35              0.0000000000
      3799        35  CHL1      C4            -23.6370602115       -1.5979697027       16.5721800000  MEMB      35              0.0000000000
      3800        35  CHL1      H4A           -22.6035866306       -1.3409113164       16.8886700000  MEMB      35              0.0000000000
      3801        35  CHL1      H4B           -23.7664706477       -2.6120876466       17.0071100000  MEMB      35              0.0000000000
      3802        35  CHL1      C5            -23.8726312948       -1.6104401540       15.1022000000  MEMB      35              0.0000000000
      3803        35  CHL1      C6            -23.9839779758       -2.7983578353       14.4689200000  MEMB      35              0.0000000000
      3804        35  CHL1      H6            -23.9753803525       -3.7752131234       14.9745800000  MEMB      35              0.0000000000
      3805        35  CHL1      C7            -24.1489441485       -2.9489602362       12.9894300000  MEMB      35              0.0000000000
      3806        35  CHL1      H7A           -23.5332837236       -3.8102956434       12.6527100000  MEMB      35              0.0000000000
      3807        35  CHL1      H7B           -25.2091403752       -3.2463774506       12.8416400000  MEMB      35              0.0000000000
      3808        35  CHL1      C8            -23.8257400838       -1.6553751163       12.2102900000  MEMB      35              0.0000000000
      3809        35  CHL1      H8            -22.7183790268       -1.5929484182       12.2749300000  MEMB      35              0.0000000000
      3810        35  CHL1      C14           -24.2530361489       -1.8032549361       10.7599900000  MEMB      35              0.0000000000
      3811        35  CHL1      H14           -25.3571718283       -1.8915483819       10.8460200000  MEMB      35              0.0000000000
      3812        35  CHL1      C15           -23.7708548201       -3.0322565839        9.9912900000  MEMB      35              0.0000000000
      3813        35  CHL1      H15A          -22.7048856375       -3.2124054231       10.2473900000  MEMB      35              0.0000000000
      3814        35  CHL1      H15B          -24.4688071291       -3.8579483764       10.2470400000  MEMB      35              0.0000000000
      3815        35  CHL1      C16           -23.9853406472       -2.6483244059        8.5223800000  MEMB      35              0.0000000000
      3816        35  CHL1      H16A          -23.0270802494       -2.6758916516        7.9608600000  MEMB      35              0.0000000000
      3817        35  CHL1      H16B          -24.7071085143       -3.2946291035        7.9786400000  MEMB      35              0.0000000000
      3818        35  CHL1      C17           -24.4686696068       -1.1392851736        8.5794900000  MEMB      35              0.0000000000
      3819        35  CHL1      H17           -25.5745130093       -1.1802684874        8.6783000000  MEMB      35              0.0000000000
      3820        35  CHL1      C13           -23.8829532582       -0.5637188251        9.8869700000  MEMB      35              0.0000000000
      3821        35  CHL1      C18           -22.3263168394       -0.3472325728        9.8189100000  MEMB      35              0.0000000000
      3822        35  CHL1      H18A          -21.7166739959       -1.0638045422        9.2279900000  MEMB      35              0.0000000000
      3823        35  CHL1      H18B          -22.1049323365        0.6522818152        9.3873100000  MEMB      35              0.0000000000
      3824        35  CHL1      H18C          -21.8547534625       -0.2106935601       10.8155500000  MEMB      35              0.0000000000
      3825        35  CHL1      C12           -24.6451178094        0.6827916825       10.5667400000  MEMB      35              0.0000000000
      3826        35  CHL1      H12A          -24.3908295991        1.6348228256       10.0536200000  MEMB      35              0.0000000000
      3827        35  CHL1      H12B          -25.7167352384        0.3920784771       10.6046200000  MEMB      35              0.0000000000
      3828        35  CHL1      C11           -24.2080621364        0.8652071746       12.0717200000  MEMB      35              0.0000000000
      3829        35  CHL1      H11A          -23.1370904819        1.1465041453       11.9811500000  MEMB      35              0.0000000000
      3830        35  CHL1      H11B          -24.8142008083        1.7021340030       12.4797300000  MEMB      35              0.0000000000
      3831        35  CHL1      C9            -24.4499052387       -0.4174284346       12.8750000000  MEMB      35              0.0000000000
      3832        35  CHL1      H9            -25.5602485336       -0.4429598272       12.8467100000  MEMB      35              0.0000000000
      3833        35  CHL1      C10           -24.0094503466       -0.3028340676       14.3754400000  MEMB      35              0.0000000000
      3834        35  CHL1      C19           -22.5822665666        0.4232248948       14.3951600000  MEMB      35              0.0000000000
      3835        35  CHL1      H19A          -22.5710683889        1.5094758079       14.1622300000  MEMB      35              0.0000000000
      3836        35  CHL1      H19B          -22.2215643225        0.4028036407       15.4457700000  MEMB      35              0.0000000000
      3837        35  CHL1      H19C          -21.8573733801       -0.1291306634       13.7597400000  MEMB      35              0.0000000000
      3838        35  CHL1      C1            -25.1455198908        0.4722190754       15.1913500000  MEMB      35              0.0000000000
      3839        35  CHL1      H1A           -25.1784645993        1.5386778257       14.8816800000  MEMB      35              0.0000000000
      3840        35  CHL1      H1B           -26.1407785563        0.0016041253       15.0420000000  MEMB      35              0.0000000000
      3841        35  CHL1      C2            -24.9295814958        0.5326482178       16.7621400000  MEMB      35              0.0000000000
      3842        35  CHL1      H2A           -25.7764892064        1.0927659414       17.2130800000  MEMB      35              0.0000000000
      3843        35  CHL1      H2B           -24.0413599367        1.1263014499       17.0670300000  MEMB      35              0.0000000000
      3844        35  CHL1      C20           -24.2468545569       -0.3793991102        7.2834400000  MEMB      35              0.0000000000
      3845        35  CHL1      H20           -23.1793560691       -0.5985665273        7.0672600000  MEMB      35              0.0000000000
      3846        35  CHL1      C21           -24.5472649376        1.1031614746        7.2158900000  MEMB      35              0.0000000000
      3847        35  CHL1      H21A          -24.0702577055        1.5682092922        6.3267800000  MEMB      35              0.0000000000
      3848        35  CHL1      H21B          -24.2145274014        1.5939066333        8.1554500000  MEMB      35              0.0000000000
      3849        35  CHL1      H21C          -25.6556289968        1.1680826238        7.1755600000  MEMB      35              0.0000000000
      3850        35  CHL1      C22           -24.9620566627       -1.0830918743        6.1429200000  MEMB      35              0.0000000000
      3851        35  CHL1      H22A          -24.7612827144       -2.1756046003        6.1635400000  MEMB      35              0.0000000000
      3852        35  CHL1      H22B          -26.0371382924       -0.9188711019        6.3700200000  MEMB      35              0.0000000000
      3853        35  CHL1      C23           -24.6335247773       -0.4659587862        4.8499400000  MEMB      35              0.0000000000
      3854        35  CHL1      H23A          -24.7030152255        0.6372561963        4.7385800000  MEMB      35              0.0000000000
      3855        35  CHL1      H23B          -23.5770725815       -0.6431897045        4.5552800000  MEMB      35              0.0000000000
      3856        35  CHL1      C24           -25.6529173555       -0.9997963996        3.7770600000  MEMB      35              0.0000000000
      3857        35  CHL1      H24A          -25.5003010150       -2.0869223166        3.6062200000  MEMB      35              0.0000000000
      3858        35  CHL1      H24B          -26.6974000748       -0.8673645542        4.1317900000  MEMB      35              0.0000000000
      3859        35  CHL1      C25           -25.3451415127       -0.3499735225        2.3715500000  MEMB      35              0.0000000000
      3860        35  CHL1      H25           -25.1025878058        0.7265146233        2.5006200000  MEMB      35              0.0000000000
      3861        35  CHL1      C26           -24.3450381983       -1.1744710548        1.6417200000  MEMB      35              0.0000000000
      3862        35  CHL1      H26A          -23.3728006222       -1.3509085396        2.1496000000  MEMB      35              0.0000000000
      3863        35  CHL1      H26B          -24.7433216144       -2.2087656601        1.5648000000  MEMB      35              0.0000000000
      3864        35  CHL1      H26C          -24.0618199678       -0.8487059278        0.6180100000  MEMB      35              0.0000000000
      3865        35  CHL1      C27           -26.6083364307       -0.3705655009        1.3386500000  MEMB      35              0.0000000000
      3866        35  CHL1      H27A          -27.3511695861        0.1045255401        2.0145200000  MEMB      35              0.0000000000
      3867        35  CHL1      H27B          -26.3588166033        0.2021115451        0.4199000000  MEMB      35              0.0000000000
      3868        35  CHL1      H27C          -26.7892978606       -1.4586252809        1.2056200000  MEMB      35              0.0000000000
      3869        36  CHL1      C3            -12.8075901579       21.8615531775       17.3496650000  MEMB      36              0.0000000000
      3870        36  CHL1      H3            -11.8481587786       21.9327030505       16.7940250000  MEMB      36              0.0000000000
      3871        36  CHL1      O3            -12.6666694421       22.3618440225       18.6503350000  MEMB      36              0.0000000000
      3872        36  CHL1      H3'           -13.3678131808       22.0455819733       19.2247650000  MEMB      36              0.0000000000
      3873        36  CHL1      C4            -13.7693486304       22.8611405156       16.6798750000  MEMB      36              0.0000000000
      3874        36  CHL1      H4A           -14.7082196950       22.8003719457       17.2707650000  MEMB      36              0.0000000000
      3875        36  CHL1      H4B           -13.4494652014       23.9218187223       16.7632150000  MEMB      36              0.0000000000
      3876        36  CHL1      C5            -13.8872063498       22.4759900067       15.2272450000  MEMB      36              0.0000000000
      3877        36  CHL1      C6            -13.5056353586       23.2624604901       14.2517650000  MEMB      36              0.0000000000
      3878        36  CHL1      H6            -13.1557982514       24.2776364467       14.4905950000  MEMB      36              0.0000000000
      3879        36  CHL1      C7            -13.7869200013       22.9386710246       12.8348150000  MEMB      36              0.0000000000
      3880        36  CHL1      H7A           -14.0633383118       23.8629326859       12.2837650000  MEMB      36              0.0000000000
      3881        36  CHL1      H7B           -12.8294199306       22.6682332145       12.3404750000  MEMB      36              0.0000000000
      3882        36  CHL1      C8            -14.7823256038       21.8238874859       12.5150650000  MEMB      36              0.0000000000
      3883        36  CHL1      H8            -15.7904928908       22.2263554372       12.7515750000  MEMB      36              0.0000000000
      3884        36  CHL1      C14           -14.6330335916       21.3705644774       11.0929750000  MEMB      36              0.0000000000
      3885        36  CHL1      H14           -13.5816575347       21.0447514778       10.9420850000  MEMB      36              0.0000000000
      3886        36  CHL1      C15           -14.7317099771       22.4386786250        9.9521750000  MEMB      36              0.0000000000
      3887        36  CHL1      H15A          -15.6196169887       23.0950138455       10.0753650000  MEMB      36              0.0000000000
      3888        36  CHL1      H15B          -13.8123830534       23.0601235004        9.8977950000  MEMB      36              0.0000000000
      3889        36  CHL1      C16           -14.8708249432       21.5256170204        8.7427550000  MEMB      36              0.0000000000
      3890        36  CHL1      H16A          -15.6773429067       21.7618658804        8.0160950000  MEMB      36              0.0000000000
      3891        36  CHL1      H16B          -13.9117514389       21.5881844854        8.1854550000  MEMB      36              0.0000000000
      3892        36  CHL1      C17           -15.1285203596       20.0676405298        9.2021550000  MEMB      36              0.0000000000
      3893        36  CHL1      H17           -14.1130079329       19.6172264606        9.2151250000  MEMB      36              0.0000000000
      3894        36  CHL1      C13           -15.5103981886       20.2007409284       10.7099850000  MEMB      36              0.0000000000
      3895        36  CHL1      C18           -17.0061911826       20.6377697668       10.9347350000  MEMB      36              0.0000000000
      3896        36  CHL1      H18A          -17.2577117901       20.5186783086       12.0103150000  MEMB      36              0.0000000000
      3897        36  CHL1      H18B          -17.2657931156       21.6003160614       10.4443950000  MEMB      36              0.0000000000
      3898        36  CHL1      H18C          -17.6134034963       19.7891790689       10.5532750000  MEMB      36              0.0000000000
      3899        36  CHL1      C12           -15.2588576049       18.9820566048       11.6586550000  MEMB      36              0.0000000000
      3900        36  CHL1      H12A          -16.0363620746       18.2178924695       11.4445150000  MEMB      36              0.0000000000
      3901        36  CHL1      H12B          -14.2711365275       18.5819916955       11.3445250000  MEMB      36              0.0000000000
      3902        36  CHL1      C11           -15.3325187752       19.3725873888       13.1328050000  MEMB      36              0.0000000000
      3903        36  CHL1      H11A          -16.3857149369       19.5603150582       13.4325450000  MEMB      36              0.0000000000
      3904        36  CHL1      H11B          -15.0917464848       18.6277714068       13.9212250000  MEMB      36              0.0000000000
      3905        36  CHL1      C9            -14.5419366798       20.6877001501       13.4884950000  MEMB      36              0.0000000000
      3906        36  CHL1      H9            -13.5117799973       20.3429975196       13.2555550000  MEMB      36              0.0000000000
      3907        36  CHL1      C10           -14.5149179879       21.0907203425       15.0083350000  MEMB      36              0.0000000000
      3908        36  CHL1      C19           -15.9732809407       21.1623701162       15.5330950000  MEMB      36              0.0000000000
      3909        36  CHL1      H19A          -15.9675882635       21.4296108787       16.6114650000  MEMB      36              0.0000000000
      3910        36  CHL1      H19B          -16.6250797263       21.8704080502       14.9779650000  MEMB      36              0.0000000000
      3911        36  CHL1      H19C          -16.4831765361       20.1766630135       15.5851450000  MEMB      36              0.0000000000
      3912        36  CHL1      C1            -13.7407877211       20.0653485899       15.8288250000  MEMB      36              0.0000000000
      3913        36  CHL1      H1A           -14.3918578680       19.1669820850       15.7707450000  MEMB      36              0.0000000000
      3914        36  CHL1      H1B           -12.8275951027       19.8228073131       15.2443850000  MEMB      36              0.0000000000
      3915        36  CHL1      C2            -13.3666227150       20.4487805764       17.2655650000  MEMB      36              0.0000000000
      3916        36  CHL1      H2A           -12.5976456160       19.7209275757       17.6020550000  MEMB      36              0.0000000000
      3917        36  CHL1      H2B           -14.2826937665       20.3436278246       17.8853150000  MEMB      36              0.0000000000
      3918        36  CHL1      C20           -16.0750682038       19.2540225450        8.2179950000  MEMB      36              0.0000000000
      3919        36  CHL1      H20           -17.1111487972       19.6328356400        8.3497350000  MEMB      36              0.0000000000
      3920        36  CHL1      C21           -16.1068345620       17.8059102148        8.5753550000  MEMB      36              0.0000000000
      3921        36  CHL1      H21A          -16.6769120225       17.1999639225        7.8390350000  MEMB      36              0.0000000000
      3922        36  CHL1      H21B          -16.5974496503       17.6285526992        9.5562450000  MEMB      36              0.0000000000
      3923        36  CHL1      H21C          -15.1089377239       17.3456967253        8.7388550000  MEMB      36              0.0000000000
      3924        36  CHL1      C22           -15.8017618971       19.4752872806        6.7529050000  MEMB      36              0.0000000000
      3925        36  CHL1      H22A          -16.5158239904       18.7922792928        6.2450350000  MEMB      36              0.0000000000
      3926        36  CHL1      H22B          -15.9391927517       20.5130188539        6.3806750000  MEMB      36              0.0000000000
      3927        36  CHL1      C23           -14.3718011591       19.3338508614        6.2308350000  MEMB      36              0.0000000000
      3928        36  CHL1      H23A          -13.6310792556       19.7442613097        6.9500150000  MEMB      36              0.0000000000
      3929        36  CHL1      H23B          -13.9655761727       18.3055635969        6.1216850000  MEMB      36              0.0000000000
      3930        36  CHL1      C24           -14.1375968404       19.8865737905        4.8358050000  MEMB      36              0.0000000000
      3931        36  CHL1      H24A          -15.0494649195       19.6169731643        4.2612250000  MEMB      36              0.0000000000
      3932        36  CHL1      H24B          -14.0797097267       20.9913725780        4.9377650000  MEMB      36              0.0000000000
      3933        36  CHL1      C25           -12.7807644941       19.2907845811        4.1408550000  MEMB      36              0.0000000000
      3934        36  CHL1      H25           -12.8126901213       18.1824031667        4.2100050000  MEMB      36              0.0000000000
      3935        36  CHL1      C26           -12.6457748404       19.7910653798        2.6415350000  MEMB      36              0.0000000000
      3936        36  CHL1      H26A          -12.5165024694       20.8775088645        2.4485250000  MEMB      36              0.0000000000
      3937        36  CHL1      H26B          -11.8185055590       19.2472643380        2.1373350000  MEMB      36              0.0000000000
      3938        36  CHL1      H26C          -13.5892488240       19.4529604778        2.1621150000  MEMB      36              0.0000000000
      3939        36  CHL1      C27           -11.5302332191       19.8456560484        4.8340750000  MEMB      36              0.0000000000
      3940        36  CHL1      H27A          -11.2437246278       20.8483864407        4.4509750000  MEMB      36              0.0000000000
      3941        36  CHL1      H27B          -11.8345202670       19.9513880440        5.8973550000  MEMB      36              0.0000000000
      3942        36  CHL1      H27C          -10.6779339435       19.1329913353        4.8378150000  MEMB      36              0.0000000000
      3943        37  SAPS      N              23.4580991557       11.4661557762       21.3378951282  MEMB      37              0.0000000000
      3944        37  SAPS      HN1            22.5092956646       11.5145206761       20.9147723640  MEMB      37              0.0000000000
      3945        37  SAPS      HN2            23.4916259400       11.8947794560       22.2848680063  MEMB      37              0.0000000000
      3946        37  SAPS      HN3            24.0476888482       11.9518071253       20.6321141963  MEMB      37              0.0000000000
      3947        37  SAPS      C12            23.9326209444       10.0869802130       21.4853127849  MEMB      37              0.0000000000
      3948        37  SAPS      H12A           24.9943526561       10.2232332827       21.6287031421  MEMB      37              0.0000000000
      3949        37  SAPS      C13            23.3949859720        9.3576077255       22.7154140228  MEMB      37              0.0000000000
      3950        37  SAPS      O13A           22.4210844042        9.8684914383       23.3338548839  MEMB      37              0.0000000000
      3951        37  SAPS      O13B           23.5603426339        8.1417269098       22.7581764170  MEMB      37              0.0000000000
      3952        37  SAPS      C11            23.6799559933        9.3054015151       20.1622958918  MEMB      37              0.0000000000
      3953        37  SAPS      H11A           22.5733009671        9.2116920522       20.1330699899  MEMB      37              0.0000000000
      3954        37  SAPS      H11B           24.2551333606        8.3550185215       20.1460439403  MEMB      37              0.0000000000
      3955        37  SAPS      P              24.3852691976        9.5051901541       17.5949572801  MEMB      37              0.0000000000
      3956        37  SAPS      O13            25.7595612924        9.0678087945       17.3596157571  MEMB      37              0.0000000000
      3957        37  SAPS      O14            23.3075343804        8.4467035254       17.4751807969  MEMB      37              0.0000000000
      3958        37  SAPS      O12            24.2557519063       10.0923860842       19.1225616974  MEMB      37              0.0000000000
      3959        37  SAPS      O11            23.9676826178       10.7313185961       16.6547353595  MEMB      37              0.0000000000
      3960        37  SAPS      C1             23.1005852160       11.7233307476       17.2578452309  MEMB      37              0.0000000000
      3961        37  SAPS      HA             22.1279386540       11.2786187287       17.5586953265  MEMB      37              0.0000000000
      3962        37  SAPS      HB             23.6206355175       12.2303845546       18.0985383561  MEMB      37              0.0000000000
      3963        37  SAPS      C2             22.8090544584       12.8482601319       16.1688538110  MEMB      37              0.0000000000
      3964        37  SAPS      HS             21.9294467332       13.4580220767       16.4668499914  MEMB      37              0.0000000000
      3965        37  SAPS      O21            22.7321863844       12.3395018773       14.8503874109  MEMB      37              0.0000000000
      3966        37  SAPS      C21            21.7053034533       11.5180449011       14.6665467165  MEMB      37              0.0000000000
      3967        37  SAPS      O22            20.8378868451       11.1873500476       15.4636479230  MEMB      37              0.0000000000
      3968        37  SAPS      C22            21.9272982396       10.8497458322       13.3221593661  MEMB      37              0.0000000000
      3969        37  SAPS      H2R            21.0308663822       10.7520145803       12.6731759251  MEMB      37              0.0000000000
      3970        37  SAPS      H2S            22.7131699058       11.4720930058       12.8431914107  MEMB      37              0.0000000000
      3971        37  SAPS      C3             24.1130145596       13.8765877456       16.2119736618  MEMB      37              0.0000000000
      3972        37  SAPS      HX             24.1726797577       14.2667728581       17.2504901818  MEMB      37              0.0000000000
      3973        37  SAPS      HY             23.9928760749       14.6915643564       15.4665198290  MEMB      37              0.0000000000
      3974        37  SAPS      O31            25.3164822350       13.1701688618       15.7657472534  MEMB      37              0.0000000000
      3975        37  SAPS      C31            26.2946493843       12.8091459227       16.5976153816  MEMB      37              0.0000000000
      3976        37  SAPS      O32            26.3135184589       12.9505100455       17.7815067660  MEMB      37              0.0000000000
      3977        37  SAPS      C32            27.4687294412       12.0115459810       15.8752277308  MEMB      37              0.0000000000
      3978        37  SAPS      H2X            27.7506871526       11.1300384163       16.4898536851  MEMB      37              0.0000000000
      3979        37  SAPS      H2Y            28.2539600787       12.7619663324       15.6415546607  MEMB      37              0.0000000000
      3980        37  SAPS      C23            22.6525488124        9.5003655926       13.4584054507  MEMB      37              0.0000000000
      3981        37  SAPS      H3R            22.0916347743        8.8136100475       14.1277808249  MEMB      37              0.0000000000
      3982        37  SAPS      H3S            23.6569096574        9.5512065176       13.9306296046  MEMB      37              0.0000000000
      3983        37  SAPS      C24            22.7628479074        8.6959330307       12.1653287884  MEMB      37              0.0000000000
      3984        37  SAPS      H4R            23.3573390906        7.7740135728       12.3412996225  MEMB      37              0.0000000000
      3985        37  SAPS      H4S            23.3289984363        9.2912121412       11.4173729745  MEMB      37              0.0000000000
      3986        37  SAPS      C25            21.4130004361        8.2349999350       11.5981696310  MEMB      37              0.0000000000
      3987        37  SAPS      H5R            20.8219395363        7.6581038975       12.3246945048  MEMB      37              0.0000000000
      3988        37  SAPS      C26            20.9688644629        8.5226783909       10.3737369898  MEMB      37              0.0000000000
      3989        37  SAPS      H6R            19.9196128091        8.3173039875       10.1151012205  MEMB      37              0.0000000000
      3990        37  SAPS      C27            21.6407832152        9.3463802294        9.3629480015  MEMB      37              0.0000000000
      3991        37  SAPS      H7R            21.1756989981        9.1347476598        8.3764235079  MEMB      37              0.0000000000
      3992        37  SAPS      H7S            22.6776134591        8.9906529059        9.1819448181  MEMB      37              0.0000000000
      3993        37  SAPS      C28            21.6233245045       10.8468433226        9.6481050272  MEMB      37              0.0000000000
      3994        37  SAPS      H8R            21.7188153292       11.1369977651       10.7048419079  MEMB      37              0.0000000000
      3995        37  SAPS      C29            21.5701614186       11.7789949478        8.6947079572  MEMB      37              0.0000000000
      3996        37  SAPS      H9R            21.3749889761       12.8348219415        8.9337413989  MEMB      37              0.0000000000
      3997        37  SAPS      C210           21.5661007429       11.5818226813        7.2048380141  MEMB      37              0.0000000000
      3998        37  SAPS      H10R           22.4015798125       10.8671745729        7.0449187488  MEMB      37              0.0000000000
      3999        37  SAPS      H10S           21.8663238418       12.5616096088        6.7756475571  MEMB      37              0.0000000000
      4000        37  SAPS      C211           20.2653260060       11.1445731415        6.7205291199  MEMB      37              0.0000000000
      4001        37  SAPS      H11R           19.4279430597       11.3695249467        7.3974240945  MEMB      37              0.0000000000
      4002        37  SAPS      C212           20.0295251869       10.4438084698        5.5697009211  MEMB      37              0.0000000000
      4003        37  SAPS      H12R           19.0166622997       10.1614928690        5.2465805736  MEMB      37              0.0000000000
      4004        37  SAPS      C213           21.1302323523       10.0214371058        4.6062339666  MEMB      37              0.0000000000
      4005        37  SAPS      H13R           22.0721190209        9.8015604257        5.1528824377  MEMB      37              0.0000000000
      4006        37  SAPS      H13S           21.2426310972       10.7846612364        3.8067483358  MEMB      37              0.0000000000
      4007        37  SAPS      C214           20.5858003906        8.8713533974        3.8218243293  MEMB      37              0.0000000000
      4008        37  SAPS      H14R           20.2614458393        9.1518623524        2.8088534186  MEMB      37              0.0000000000
      4009        37  SAPS      C215           20.5376789119        7.5604865003        4.1508531276  MEMB      37              0.0000000000
      4010        37  SAPS      H15R           20.0404310426        6.9045815610        3.4211048268  MEMB      37              0.0000000000
      4011        37  SAPS      C216           21.1056217362        6.9091233038        5.4473292527  MEMB      37              0.0000000000
      4012        37  SAPS      H16R           20.2666978633        6.3470411674        5.9105684445  MEMB      37              0.0000000000
      4013        37  SAPS      H16S           21.5697396569        7.5727267973        6.2079509814  MEMB      37              0.0000000000
      4014        37  SAPS      C217           22.2999240843        5.9750109397        5.0718397359  MEMB      37              0.0000000000
      4015        37  SAPS      H17R           22.8127626060        5.7115118488        6.0215161073  MEMB      37              0.0000000000
      4016        37  SAPS      H17S           22.9856057158        6.6620643752        4.5313591781  MEMB      37              0.0000000000
      4017        37  SAPS      C218           21.9917010215        4.8134512067        4.0935304584  MEMB      37              0.0000000000
      4018        37  SAPS      H18R           21.8946637050        5.1917309991        3.0534287641  MEMB      37              0.0000000000
      4019        37  SAPS      H18S           20.9095890449        4.5662109415        4.1407149853  MEMB      37              0.0000000000
      4020        37  SAPS      C219           23.0134150679        3.7650841710        4.1158392056  MEMB      37              0.0000000000
      4021        37  SAPS      H19R           22.8263354467        3.1223499639        5.0025265489  MEMB      37              0.0000000000
      4022        37  SAPS      H19S           23.9603962033        4.2762645468        4.3919579503  MEMB      37              0.0000000000
      4023        37  SAPS      C220           23.1863304075        2.8926496948        2.8570740451  MEMB      37              0.0000000000
      4024        37  SAPS      H20R           23.9260784071        2.1056968875        3.1174569931  MEMB      37              0.0000000000
      4025        37  SAPS      H20S           23.6038037282        3.5012290524        2.0266115569  MEMB      37              0.0000000000
      4026        37  SAPS      H20T           22.1835491363        2.4761565971        2.6219478310  MEMB      37              0.0000000000
      4027        37  SAPS      C33            26.8335511906       11.4953459639       14.4941846830  MEMB      37              0.0000000000
      4028        37  SAPS      H3X            25.8215057259       11.0963540417       14.7197735395  MEMB      37              0.0000000000
      4029        37  SAPS      H3Y            27.3432609991       10.5732609227       14.1416571005  MEMB      37              0.0000000000
      4030        37  SAPS      C34            26.8275736969       12.4201745160       13.2957616005  MEMB      37              0.0000000000
      4031        37  SAPS      H4X            27.8835827146       12.5859825280       12.9929846913  MEMB      37              0.0000000000
      4032        37  SAPS      H4Y            26.3745052568       13.4268590965       13.4208078073  MEMB      37              0.0000000000
      4033        37  SAPS      C35            26.1519201134       11.7756176510       12.0589133369  MEMB      37              0.0000000000
      4034        37  SAPS      H5X            25.1337646944       11.4543268669       12.3662450783  MEMB      37              0.0000000000
      4035        37  SAPS      H5Y            26.6751437236       10.8177398110       11.8514815306  MEMB      37              0.0000000000
      4036        37  SAPS      C36            25.8492425980       12.6722747682       10.8102629501  MEMB      37              0.0000000000
      4037        37  SAPS      H6X            26.7212151792       13.2853152278       10.4969485349  MEMB      37              0.0000000000
      4038        37  SAPS      H6Y            25.1137636675       13.4088498339       11.1986560741  MEMB      37              0.0000000000
      4039        37  SAPS      C37            25.2189401674       11.8646704508        9.6864986511  MEMB      37              0.0000000000
      4040        37  SAPS      H7X            24.8823511701       12.5979170223        8.9227060421  MEMB      37              0.0000000000
      4041        37  SAPS      H7Y            24.4547405174       11.2385617241       10.1947384957  MEMB      37              0.0000000000
      4042        37  SAPS      C38            26.3144549377       10.9407432271        9.0248384287  MEMB      37              0.0000000000
      4043        37  SAPS      H8X            26.8993653717       10.3106319980        9.7285152193  MEMB      37              0.0000000000
      4044        37  SAPS      H8Y            26.9604219062       11.6639066267        8.4825444137  MEMB      37              0.0000000000
      4045        37  SAPS      C39            25.7576689716       10.0377775690        7.9587973961  MEMB      37              0.0000000000
      4046        37  SAPS      H9X            24.8378614191       10.5445337569        7.5962055193  MEMB      37              0.0000000000
      4047        37  SAPS      H9Y            25.4542547547        9.0849073035        8.4428421795  MEMB      37              0.0000000000
      4048        37  SAPS      C310           26.7022978095        9.7078752926        6.7896910018  MEMB      37              0.0000000000
      4049        37  SAPS      H10X           27.3312965165        8.8472337895        7.1027049580  MEMB      37              0.0000000000
      4050        37  SAPS      H10Y           27.2842148747       10.6118078175        6.5093353180  MEMB      37              0.0000000000
      4051        37  SAPS      C311           26.0308460506        9.3600995923        5.4662651440  MEMB      37              0.0000000000
      4052        37  SAPS      H11X           25.3905444411        8.4672687702        5.6311534048  MEMB      37              0.0000000000
      4053        37  SAPS      H11Y           26.8601433635        9.0654225546        4.7882155215  MEMB      37              0.0000000000
      4054        37  SAPS      C312           25.1984460141       10.3126639200        4.5988910563  MEMB      37              0.0000000000
      4055        37  SAPS      H12X           25.9161311194       11.1112825448        4.3134843962  MEMB      37              0.0000000000
      4056        37  SAPS      H12Y           24.4124943802       10.8517721531        5.1698232647  MEMB      37              0.0000000000
      4057        37  SAPS      C313           24.6297022399        9.7026930522        3.3270464242  MEMB      37              0.0000000000
      4058        37  SAPS      H13X           23.8551768694        8.9401292507        3.5571069428  MEMB      37              0.0000000000
      4059        37  SAPS      H13Y           25.4187536475        9.1445504325        2.7791434212  MEMB      37              0.0000000000
      4060        37  SAPS      C314           23.9691578168       10.6932077110        2.3480499465  MEMB      37              0.0000000000
      4061        37  SAPS      H14X           24.8470601843       11.2912714026        2.0225832027  MEMB      37              0.0000000000
      4062        37  SAPS      H14Y           23.2841595108       11.3670839283        2.9057146628  MEMB      37              0.0000000000
      4063        37  SAPS      C315           23.2222690980       10.0140804845        1.1325852038  MEMB      37              0.0000000000
      4064        37  SAPS      H15X           23.0385658414       10.8379394578        0.4102075911  MEMB      37              0.0000000000
      4065        37  SAPS      H15Y           22.3502901763        9.5035386023        1.5944508737  MEMB      37              0.0000000000
      4066        37  SAPS      C316           23.9899149948        8.8151127632        0.4627093964  MEMB      37              0.0000000000
      4067        37  SAPS      H16X           24.3051490146        8.1645811355        1.3063674822  MEMB      37              0.0000000000
      4068        37  SAPS      H16Y           24.8602917859        9.2008395032       -0.1099844834  MEMB      37              0.0000000000
      4069        37  SAPS      C317           22.9593140245        7.9080271447       -0.2785180812  MEMB      37              0.0000000000
      4070        37  SAPS      H17X           22.1082786490        7.6181353349        0.3741861805  MEMB      37              0.0000000000
      4071        37  SAPS      H17Y           23.4385592032        6.9234420055       -0.4662351833  MEMB      37              0.0000000000
      4072        37  SAPS      C318           22.3008404031        8.5935876074       -1.5061302728  MEMB      37              0.0000000000
      4073        37  SAPS      H18X           21.8518744356        9.5920838117       -1.3170359728  MEMB      37              0.0000000000
      4074        37  SAPS      H18Y           21.4447793445        7.9239800521       -1.7365771690  MEMB      37              0.0000000000
      4075        37  SAPS      H18Z           23.0934338357        8.6326361970       -2.2836851441  MEMB      37              0.0000000000
      4076        38  SAPE      N             -23.7641869033       -7.0073967315       21.8961178495  MEMB      38              0.0000000000
      4077        38  SAPE      HN1           -23.4546938350       -7.0973670769       20.9073208747  MEMB      38              0.0000000000
      4078        38  SAPE      HN2           -24.2346200015       -6.1289314314       22.1937607848  MEMB      38              0.0000000000
      4079        38  SAPE      HN3           -22.9108223847       -7.2929566537       22.4174857505  MEMB      38              0.0000000000
      4080        38  SAPE      C12           -24.7641070455       -8.1706983375       22.0425883331  MEMB      38              0.0000000000
      4081        38  SAPE      H12A          -25.6435310641       -7.8471340651       21.4457293435  MEMB      38              0.0000000000
      4082        38  SAPE      H12B          -25.1075888836       -8.2273243292       23.0976403666  MEMB      38              0.0000000000
      4083        38  SAPE      C11           -24.0815652616       -9.4322739937       21.5107563539  MEMB      38              0.0000000000
      4084        38  SAPE      H11A          -24.8490002386      -10.2335896954       21.4536803105  MEMB      38              0.0000000000
      4085        38  SAPE      H11B          -23.3518447269       -9.7946332410       22.2660873475  MEMB      38              0.0000000000
      4086        38  SAPE      P             -24.2525144851       -9.4619659950       18.8745471062  MEMB      38              0.0000000000
      4087        38  SAPE      O13           -25.2892868284      -10.4862641198       19.0835076134  MEMB      38              0.0000000000
      4088        38  SAPE      O14           -24.6675681403       -8.1692692286       18.2395725640  MEMB      38              0.0000000000
      4089        38  SAPE      O12           -23.4225878447       -9.2289674499       20.2504789438  MEMB      38              0.0000000000
      4090        38  SAPE      O11           -23.0197874777      -10.0695324446       18.1024312372  MEMB      38              0.0000000000
      4091        38  SAPE      C1            -22.2221194627      -11.1744891666       18.5137335577  MEMB      38              0.0000000000
      4092        38  SAPE      HA            -21.1835665404      -10.7956123196       18.4033651557  MEMB      38              0.0000000000
      4093        38  SAPE      HB            -22.2626714597      -11.4176973950       19.5970277292  MEMB      38              0.0000000000
      4094        38  SAPE      C2            -22.4088144939      -12.4323588646       17.6434707553  MEMB      38              0.0000000000
      4095        38  SAPE      HS            -21.5004461345      -13.0710125694       17.6796576695  MEMB      38              0.0000000000
      4096        38  SAPE      O21           -22.7279121748      -12.2943185936       16.2357539646  MEMB      38              0.0000000000
      4097        38  SAPE      C21           -21.8279571688      -11.9406938116       15.3655455576  MEMB      38              0.0000000000
      4098        38  SAPE      O22           -20.7096318112      -11.5657779289       15.7127838574  MEMB      38              0.0000000000
      4099        38  SAPE      C22           -22.3756384276      -12.0045493351       13.9676898657  MEMB      38              0.0000000000
      4100        38  SAPE      H2R           -23.2309418889      -12.7073786929       14.0615398861  MEMB      38              0.0000000000
      4101        38  SAPE      H2S           -22.7825106033      -11.0577901002       13.5524513669  MEMB      38              0.0000000000
      4102        38  SAPE      C3            -23.6064568347      -13.2268867160       18.3121453316  MEMB      38              0.0000000000
      4103        38  SAPE      HX            -23.5359628483      -13.2097766453       19.4207744609  MEMB      38              0.0000000000
      4104        38  SAPE      HY            -23.5019245136      -14.2809341661       17.9769171940  MEMB      38              0.0000000000
      4105        38  SAPE      O31           -24.8999046971      -12.7834017097       17.9496071191  MEMB      38              0.0000000000
      4106        38  SAPE      C31           -25.7455239676      -13.5565257507       17.1859058401  MEMB      38              0.0000000000
      4107        38  SAPE      O32           -25.5591443567      -14.6767491687       16.8200296176  MEMB      38              0.0000000000
      4108        38  SAPE      C32           -27.0342918814      -12.7393957293       16.8800601085  MEMB      38              0.0000000000
      4109        38  SAPE      H2X           -27.5464707799      -12.2470724034       17.7342331934  MEMB      38              0.0000000000
      4110        38  SAPE      H2Y           -27.7596453364      -13.3709662543       16.3239107464  MEMB      38              0.0000000000
      4111        38  SAPE      C23           -21.2531844193      -12.4894037602       12.8916985008  MEMB      38              0.0000000000
      4112        38  SAPE      H3R           -20.4423022117      -13.1025579650       13.3398424768  MEMB      38              0.0000000000
      4113        38  SAPE      H3S           -20.8239928236      -11.4843789924       12.6915966705  MEMB      38              0.0000000000
      4114        38  SAPE      C24           -21.7231419343      -13.1726764000       11.6773965389  MEMB      38              0.0000000000
      4115        38  SAPE      H4R           -22.4732045568      -12.5490639137       11.1455745978  MEMB      38              0.0000000000
      4116        38  SAPE      H4S           -22.3236090185      -14.0277962455       12.0549285937  MEMB      38              0.0000000000
      4117        38  SAPE      C25           -20.6114147119      -13.7105431289       10.8485961944  MEMB      38              0.0000000000
      4118        38  SAPE      H5R           -19.5558164719      -13.6246757526       11.1458152274  MEMB      38              0.0000000000
      4119        38  SAPE      C26           -20.7968159890      -14.3528265937        9.7016827162  MEMB      38              0.0000000000
      4120        38  SAPE      H6R           -19.9831020232      -14.7910937366        9.1051999403  MEMB      38              0.0000000000
      4121        38  SAPE      C27           -22.1407263623      -14.6274286125        9.0308255546  MEMB      38              0.0000000000
      4122        38  SAPE      H7R           -22.0400154000      -14.7977853306        7.9375935938  MEMB      38              0.0000000000
      4123        38  SAPE      H7S           -22.6919725014      -13.6650302963        8.9657236312  MEMB      38              0.0000000000
      4124        38  SAPE      C28           -22.9359442661      -15.7970003921        9.5771670572  MEMB      38              0.0000000000
      4125        38  SAPE      H8R           -22.4547883344      -16.7823956373        9.6636840241  MEMB      38              0.0000000000
      4126        38  SAPE      C29           -24.1999518478      -15.6997924320       10.0245978431  MEMB      38              0.0000000000
      4127        38  SAPE      H9R           -24.6896242800      -16.5772870383       10.4720620857  MEMB      38              0.0000000000
      4128        38  SAPE      C210          -25.0611534206      -14.3746949645       10.0528897060  MEMB      38              0.0000000000
      4129        38  SAPE      H10R          -24.4020260424      -13.5143072450        9.8087482554  MEMB      38              0.0000000000
      4130        38  SAPE      H10S          -25.4100381409      -14.2318498273       11.0979716934  MEMB      38              0.0000000000
      4131        38  SAPE      C211          -26.2303872782      -14.1969820312        9.1019247616  MEMB      38              0.0000000000
      4132        38  SAPE      H11R          -27.1617989858      -14.3373990868        9.6700405133  MEMB      38              0.0000000000
      4133        38  SAPE      C212          -26.1934212120      -13.7443264008        7.8385164741  MEMB      38              0.0000000000
      4134        38  SAPE      H12R          -27.0878114031      -13.8011489595        7.2006782407  MEMB      38              0.0000000000
      4135        38  SAPE      C213          -25.0218324228      -13.3763497785        6.9973029552  MEMB      38              0.0000000000
      4136        38  SAPE      H13R          -24.5582742271      -14.2817277860        6.5503965207  MEMB      38              0.0000000000
      4137        38  SAPE      H13S          -24.2476549385      -12.9487378494        7.6697000287  MEMB      38              0.0000000000
      4138        38  SAPE      C214          -25.2137698596      -12.2802236393        5.9116188113  MEMB      38              0.0000000000
      4139        38  SAPE      H14R          -24.7997516212      -11.2788734193        6.1010575480  MEMB      38              0.0000000000
      4140        38  SAPE      C215          -25.7120047553      -12.4395108505        4.7099602099  MEMB      38              0.0000000000
      4141        38  SAPE      H15R          -25.6461575058      -11.6304720175        3.9675852323  MEMB      38              0.0000000000
      4142        38  SAPE      C216          -26.2346855682      -13.7202494549        4.0071937190  MEMB      38              0.0000000000
      4143        38  SAPE      H16R          -27.2845624162      -13.5752636462        3.6739392360  MEMB      38              0.0000000000
      4144        38  SAPE      H16S          -26.0740065383      -14.5481380319        4.7304527771  MEMB      38              0.0000000000
      4145        38  SAPE      C217          -25.2329463282      -14.0006842337        2.8007605607  MEMB      38              0.0000000000
      4146        38  SAPE      H17R          -25.0662055430      -13.1092260730        2.1590279979  MEMB      38              0.0000000000
      4147        38  SAPE      H17S          -25.7970729339      -14.8108591062        2.2911538692  MEMB      38              0.0000000000
      4148        38  SAPE      C218          -23.8049183433      -14.5036837295        3.1300249906  MEMB      38              0.0000000000
      4149        38  SAPE      H18R          -23.8966741568      -15.4711422431        3.6684720208  MEMB      38              0.0000000000
      4150        38  SAPE      H18S          -23.2539514083      -13.6658631925        3.6083675955  MEMB      38              0.0000000000
      4151        38  SAPE      C219          -23.0929387156      -14.8644013543        1.8689417895  MEMB      38              0.0000000000
      4152        38  SAPE      H19R          -22.1159687084      -15.2732012340        2.2046997601  MEMB      38              0.0000000000
      4153        38  SAPE      H19S          -22.7954414086      -13.9930429119        1.2472097884  MEMB      38              0.0000000000
      4154        38  SAPE      C220          -23.6478224427      -16.0849539950        1.0452579575  MEMB      38              0.0000000000
      4155        38  SAPE      H20R          -24.7119132519      -15.9815951111        0.7430179775  MEMB      38              0.0000000000
      4156        38  SAPE      H20S          -23.5595608920      -17.0026479955        1.6652319460  MEMB      38              0.0000000000
      4157        38  SAPE      H20T          -23.0608922349      -16.1409468087        0.1036098888  MEMB      38              0.0000000000
      4158        38  SAPE      C33           -26.7865267231      -11.6282330106       15.8297649321  MEMB      38              0.0000000000
      4159        38  SAPE      H3X           -26.9123585351      -11.9976844231       14.7895759348  MEMB      38              0.0000000000
      4160        38  SAPE      H3Y           -25.7927921983      -11.1325074190       15.8624573367  MEMB      38              0.0000000000
      4161        38  SAPE      C34           -27.7830291410      -10.4518534727       15.9508618160  MEMB      38              0.0000000000
      4162        38  SAPE      H4X           -27.6770159883       -9.9952120222       16.9581160317  MEMB      38              0.0000000000
      4163        38  SAPE      H4Y           -28.8216828421      -10.8461833210       15.9556577872  MEMB      38              0.0000000000
      4164        38  SAPE      C35           -27.5601183991       -9.3671339677       14.8679374815  MEMB      38              0.0000000000
      4165        38  SAPE      H5X           -28.3475550963       -8.5948042697       15.0012458571  MEMB      38              0.0000000000
      4166        38  SAPE      H5Y           -27.7655854788       -9.8437228899       13.8856098453  MEMB      38              0.0000000000
      4167        38  SAPE      C36           -26.1524835403       -8.9053909916       14.5422943547  MEMB      38              0.0000000000
      4168        38  SAPE      H6X           -25.4271230456       -9.7090164005       14.2925754120  MEMB      38              0.0000000000
      4169        38  SAPE      H6Y           -25.7848222212       -8.3292089614       15.4181712348  MEMB      38              0.0000000000
      4170        38  SAPE      C37           -25.9906013828       -7.7607140448       13.4640527516  MEMB      38              0.0000000000
      4171        38  SAPE      H7X           -25.1141793100       -7.1148992083       13.6857024901  MEMB      38              0.0000000000
      4172        38  SAPE      H7Y           -26.8588600280       -7.0708856161       13.3963431877  MEMB      38              0.0000000000
      4173        38  SAPE      C38           -25.9454927256       -8.3106130164       11.9739897361  MEMB      38              0.0000000000
      4174        38  SAPE      H8X           -25.9241650203       -7.3066859415       11.4985984180  MEMB      38              0.0000000000
      4175        38  SAPE      H8Y           -26.8889417764       -8.6856577244       11.5228065599  MEMB      38              0.0000000000
      4176        38  SAPE      C39           -24.7789981481       -9.2734160576       11.7083048038  MEMB      38              0.0000000000
      4177        38  SAPE      H9X           -25.1566905654      -10.2991106288       11.9073527780  MEMB      38              0.0000000000
      4178        38  SAPE      H9Y           -23.8966580645       -9.1877643405       12.3779769682  MEMB      38              0.0000000000
      4179        38  SAPE      C310          -24.2156785066       -8.9647741964       10.3350946348  MEMB      38              0.0000000000
      4180        38  SAPE      H10X          -23.8350369353       -7.9269099649       10.2243201315  MEMB      38              0.0000000000
      4181        38  SAPE      H10Y          -25.0729070910       -9.0381657016        9.6321764759  MEMB      38              0.0000000000
      4182        38  SAPE      C311          -23.0696441028       -9.8284669397        9.9155476583  MEMB      38              0.0000000000
      4183        38  SAPE      H11X          -23.2120586665      -10.9121553892       10.1146915644  MEMB      38              0.0000000000
      4184        38  SAPE      H11Y          -22.2849297118       -9.3953207338       10.5719993386  MEMB      38              0.0000000000
      4185        38  SAPE      C312          -22.6089828391       -9.4764535903        8.4447499819  MEMB      38              0.0000000000
      4186        38  SAPE      H12X          -22.5062183321       -8.3780207802        8.3135802603  MEMB      38              0.0000000000
      4187        38  SAPE      H12Y          -23.3422265713       -9.9305531143        7.7444150473  MEMB      38              0.0000000000
      4188        38  SAPE      C313          -21.2195429458       -9.9965173527        8.1405488159  MEMB      38              0.0000000000
      4189        38  SAPE      H13X          -21.0483537008      -11.0830889295        8.2966811976  MEMB      38              0.0000000000
      4190        38  SAPE      H13Y          -20.4923449626       -9.5137572016        8.8278963444  MEMB      38              0.0000000000
      4191        38  SAPE      C314          -20.8910863080       -9.4888774662        6.7709553901  MEMB      38              0.0000000000
      4192        38  SAPE      H14X          -19.8169135769       -9.5896150476        6.5057659875  MEMB      38              0.0000000000
      4193        38  SAPE      H14Y          -21.0571062930       -8.3970541588        6.6497935105  MEMB      38              0.0000000000
      4194        38  SAPE      C315          -21.6147848990      -10.1169094320        5.5415384716  MEMB      38              0.0000000000
      4195        38  SAPE      H15X          -22.7190685437      -10.0889407777        5.6602656185  MEMB      38              0.0000000000
      4196        38  SAPE      H15Y          -21.2694541118      -11.1582044801        5.3661184144  MEMB      38              0.0000000000
      4197        38  SAPE      C316          -21.3576979057       -9.2361276474        4.2999026818  MEMB      38              0.0000000000
      4198        38  SAPE      H16X          -20.2527655404       -9.2038852400        4.1885213655  MEMB      38              0.0000000000
      4199        38  SAPE      H16Y          -21.4992163284       -8.1626531541        4.5487923990  MEMB      38              0.0000000000
      4200        38  SAPE      C317          -22.1194447288       -9.6570502037        3.0620048854  MEMB      38              0.0000000000
      4201        38  SAPE      H17X          -21.9985086632       -8.8721557850        2.2850647155  MEMB      38              0.0000000000
      4202        38  SAPE      H17Y          -23.1676366136       -9.8573675459        3.3710150390  MEMB      38              0.0000000000
      4203        38  SAPE      C318          -21.5805540253      -11.0564263087        2.5417399092  MEMB      38              0.0000000000
      4204        38  SAPE      H18X          -22.1709606205      -11.3917357994        1.6623615215  MEMB      38              0.0000000000
      4205        38  SAPE      H18Y          -21.6064697660      -11.8240284889        3.3445086587  MEMB      38              0.0000000000
      4206        38  SAPE      H18Z          -20.5859960280      -10.9482794620        2.0585425133  MEMB      38              0.0000000000
      4207        39  POPC      N              16.4497015491       22.1151096482       20.7128861217  MEMB      39              0.0000000000
      4208        39  POPC      C12            16.9879318799       21.3770675627       19.5058683495  MEMB      39              0.0000000000
      4209        39  POPC      H12A           17.1823321539       20.3651508989       19.8293392559  MEMB      39              0.0000000000
      4210        39  POPC      H12B           17.9054179883       21.8422274501       19.1768615315  MEMB      39              0.0000000000
      4211        39  POPC      C13            15.2852033658       21.4120000418       21.2799203844  MEMB      39              0.0000000000
      4212        39  POPC      H13A           15.0666942460       21.9473838334       22.1920706143  MEMB      39              0.0000000000
      4213        39  POPC      H13B           14.4511307979       21.4642485618       20.5958202710  MEMB      39              0.0000000000
      4214        39  POPC      H13C           15.6888359678       20.4526893459       21.5683709232  MEMB      39              0.0000000000
      4215        39  POPC      C14            17.5293765185       22.1234685862       21.7507909365  MEMB      39              0.0000000000
      4216        39  POPC      H14A           17.3485385511       22.1067430172       22.8154119369  MEMB      39              0.0000000000
      4217        39  POPC      H14B           18.0538980057       21.1817486136       21.8174294257  MEMB      39              0.0000000000
      4218        39  POPC      H14C           18.1145010191       23.0146305531       21.5779913834  MEMB      39              0.0000000000
      4219        39  POPC      C15            16.0379302738       23.5616585300       20.3236263953  MEMB      39              0.0000000000
      4220        39  POPC      H15A           15.1652531308       23.6224494100       19.6902710291  MEMB      39              0.0000000000
      4221        39  POPC      H15B           16.8614576227       24.0687915629       19.8429821718  MEMB      39              0.0000000000
      4222        39  POPC      H15C           15.7064499655       24.0887531392       21.2060616706  MEMB      39              0.0000000000
      4223        39  POPC      C11            16.0852248523       21.2398554549       18.2068798740  MEMB      39              0.0000000000
      4224        39  POPC      H11A           16.6846913911       20.7962539864       17.3833638850  MEMB      39              0.0000000000
      4225        39  POPC      H11B           15.7918420387       22.2613920582       17.8832897839  MEMB      39              0.0000000000
      4226        39  POPC      P              13.5795095627       20.6274141207       17.4581414421  MEMB      39              0.0000000000
      4227        39  POPC      O13            13.9996807235       21.3842049255       16.2794531214  MEMB      39              0.0000000000
      4228        39  POPC      O14            12.3851147608       21.0570816227       18.1862458650  MEMB      39              0.0000000000
      4229        39  POPC      O12            14.8418198579       20.4620096892       18.3903929759  MEMB      39              0.0000000000
      4230        39  POPC      O11            13.3138587607       19.1853000135       16.9057945295  MEMB      39              0.0000000000
      4231        39  POPC      C1             14.3062201326       18.1968159565       16.5909233832  MEMB      39              0.0000000000
      4232        39  POPC      HA             13.8775329206       17.1864151403       16.7630821798  MEMB      39              0.0000000000
      4233        39  POPC      HB             15.2556609085       18.2975932170       17.1590142415  MEMB      39              0.0000000000
      4234        39  POPC      C2             14.7705863761       18.2002347242       15.1114986744  MEMB      39              0.0000000000
      4235        39  POPC      HS             15.4845680903       17.3703846372       14.9220263489  MEMB      39              0.0000000000
      4236        39  POPC      O21            15.4379734752       19.4527747990       14.7662479726  MEMB      39              0.0000000000
      4237        39  POPC      C21            16.3135020664       19.3571000975       13.7399941509  MEMB      39              0.0000000000
      4238        39  POPC      O22            16.6329004292       18.3836021532       13.1355280170  MEMB      39              0.0000000000
      4239        39  POPC      C22            16.8128848044       20.7252802279       13.4127230715  MEMB      39              0.0000000000
      4240        39  POPC      H2R            17.1949077925       21.0124221605       14.4156832719  MEMB      39              0.0000000000
      4241        39  POPC      H2S            16.0345507903       21.4338735053       13.0571774385  MEMB      39              0.0000000000
      4242        39  POPC      C3             13.6362635794       17.9639448495       13.9760379741  MEMB      39              0.0000000000
      4243        39  POPC      HX             13.1831772815       16.9842899542       14.2393051998  MEMB      39              0.0000000000
      4244        39  POPC      HY             14.0880247723       17.8697122938       12.9654175795  MEMB      39              0.0000000000
      4245        39  POPC      O31            12.7049204788       19.0753123458       14.0239737375  MEMB      39              0.0000000000
      4246        39  POPC      C31            12.7241981314       19.7927071019       12.9025805465  MEMB      39              0.0000000000
      4247        39  POPC      O32            13.4409369824       19.6353686172       11.9627765557  MEMB      39              0.0000000000
      4248        39  POPC      C32            11.5145034301       20.7442075269       13.0421255464  MEMB      39              0.0000000000
      4249        39  POPC      H2X            11.6256450176       21.1082595999       14.0858853098  MEMB      39              0.0000000000
      4250        39  POPC      H2Y            10.5749811674       20.1513068260       13.0514699773  MEMB      39              0.0000000000
      4251        39  POPC      C23            17.9671504453       20.6345725623       12.3571763501  MEMB      39              0.0000000000
      4252        39  POPC      H3R            17.4812208667       20.1896907147       11.4625963700  MEMB      39              0.0000000000
      4253        39  POPC      H3S            18.8223619703       20.0713377625       12.7881066685  MEMB      39              0.0000000000
      4254        39  POPC      C24            18.4890037261       22.0689693830       12.2436064919  MEMB      39              0.0000000000
      4255        39  POPC      H4R            19.5407260110       21.9370506670       11.9107418407  MEMB      39              0.0000000000
      4256        39  POPC      H4S            18.5402414911       22.5209492910       13.2572186714  MEMB      39              0.0000000000
      4257        39  POPC      C25            17.7064133423       23.0855250209       11.3163042809  MEMB      39              0.0000000000
      4258        39  POPC      H5R            17.7306474442       24.0307874762       11.8995819402  MEMB      39              0.0000000000
      4259        39  POPC      H5S            16.6322227168       22.8033911290       11.3452196468  MEMB      39              0.0000000000
      4260        39  POPC      C26            18.2837208782       23.4843227845        9.9865824094  MEMB      39              0.0000000000
      4261        39  POPC      H6R            19.3177949363       23.8267028524       10.2051858988  MEMB      39              0.0000000000
      4262        39  POPC      H6S            17.6601436724       24.2743113842        9.5160603783  MEMB      39              0.0000000000
      4263        39  POPC      C27            18.5124320345       22.2571210083        9.0765460819  MEMB      39              0.0000000000
      4264        39  POPC      H7R            17.6070663028       21.6429370697        8.8831250553  MEMB      39              0.0000000000
      4265        39  POPC      H7S            19.0821907900       21.4755218664        9.6231709583  MEMB      39              0.0000000000
      4266        39  POPC      C28            19.2745237675       22.5489392268        7.7547930047  MEMB      39              0.0000000000
      4267        39  POPC      H8R            19.4961703028       21.6295166231        7.1718211610  MEMB      39              0.0000000000
      4268        39  POPC      H8S            20.2700804367       22.9825441777        7.9896855660  MEMB      39              0.0000000000
      4269        39  POPC      C29            18.6014234390       23.5060495659        6.8543142932  MEMB      39              0.0000000000
      4270        39  POPC      H91            18.5003264911       24.5055093028        7.3024878425  MEMB      39              0.0000000000
      4271        39  POPC      C210           18.1511128289       23.3321357220        5.5586778110  MEMB      39              0.0000000000
      4272        39  POPC      H101           17.6799632900       24.2493921307        5.1757173072  MEMB      39              0.0000000000
      4273        39  POPC      C211           18.1734744228       22.1174410800        4.7142120965  MEMB      39              0.0000000000
      4274        39  POPC      H11R           17.1374138551       21.7582500245        4.5356586211  MEMB      39              0.0000000000
      4275        39  POPC      H11S           18.8432271702       21.3499578788        5.1577453024  MEMB      39              0.0000000000
      4276        39  POPC      C212           18.8799414809       22.3854879557        3.3485512715  MEMB      39              0.0000000000
      4277        39  POPC      H12R           18.9339143254       21.4243728775        2.7938758894  MEMB      39              0.0000000000
      4278        39  POPC      H12S           19.8491433090       22.8637779355        3.6058602554  MEMB      39              0.0000000000
      4279        39  POPC      C213           18.3186821840       23.5284734993        2.4195988778  MEMB      39              0.0000000000
      4280        39  POPC      H13R           18.2361538584       24.4541280647        3.0284276721  MEMB      39              0.0000000000
      4281        39  POPC      H13S           17.3002732529       23.2069174022        2.1133863696  MEMB      39              0.0000000000
      4282        39  POPC      C214           19.1532293516       23.7215187154        1.1001403780  MEMB      39              0.0000000000
      4283        39  POPC      H14R           20.1651399313       24.0496958384        1.4205424780  MEMB      39              0.0000000000
      4284        39  POPC      H14S           18.7149578337       24.5221697028        0.4667387935  MEMB      39              0.0000000000
      4285        39  POPC      C215           19.1959363831       22.4278682151        0.2874975926  MEMB      39              0.0000000000
      4286        39  POPC      H15R           18.1271516254       22.2261309275        0.0609531127  MEMB      39              0.0000000000
      4287        39  POPC      H15S           19.7109504272       21.5977208625        0.8165882867  MEMB      39              0.0000000000
      4288        39  POPC      C216           19.9833383421       22.5219181425       -1.0199078859  MEMB      39              0.0000000000
      4289        39  POPC      H16R           19.8391191963       23.5040395078       -1.5188668421  MEMB      39              0.0000000000
      4290        39  POPC      H16S           19.5180297860       21.7692324456       -1.6916767209  MEMB      39              0.0000000000
      4291        39  POPC      C217           21.5366709167       22.2064676167       -0.8008142839  MEMB      39              0.0000000000
      4292        39  POPC      H17R           21.8254183879       22.8478435910        0.0591757241  MEMB      39              0.0000000000
      4293        39  POPC      H17S           22.1250486772       22.6496562298       -1.6325101733  MEMB      39              0.0000000000
      4294        39  POPC      C218           21.8901446836       20.7606054345       -0.5472996424  MEMB      39              0.0000000000
      4295        39  POPC      H18R           22.9361874043       20.6156859244       -0.2021705734  MEMB      39              0.0000000000
      4296        39  POPC      H18S           21.8412682862       20.1132095802       -1.4488585466  MEMB      39              0.0000000000
      4297        39  POPC      H18T           21.2622000832       20.3631985859        0.2785791147  MEMB      39              0.0000000000
      4298        39  POPC      C33            11.5605871006       21.9267084530       12.0850036685  MEMB      39              0.0000000000
      4299        39  POPC      H3X            10.6503997543       22.5550905384       12.1899594916  MEMB      39              0.0000000000
      4300        39  POPC      H3Y            11.6916459441       21.6177119591       11.0259162907  MEMB      39              0.0000000000
      4301        39  POPC      C34            12.6029977592       22.9060373040       12.5898072090  MEMB      39              0.0000000000
      4302        39  POPC      H4X            13.6184396113       22.4845351817       12.4300119944  MEMB      39              0.0000000000
      4303        39  POPC      H4Y            12.3905178663       23.1994845631       13.6400748805  MEMB      39              0.0000000000
      4304        39  POPC      C35            12.6304529438       24.2003452475       11.8280918844  MEMB      39              0.0000000000
      4305        39  POPC      H5X            13.4047641156       24.8821211639       12.2403355452  MEMB      39              0.0000000000
      4306        39  POPC      H5Y            11.6478882569       24.7017042578       11.9604802699  MEMB      39              0.0000000000
      4307        39  POPC      C36            12.9522939275       24.0781097667       10.3500583023  MEMB      39              0.0000000000
      4308        39  POPC      H6X            12.9204644007       25.1111011321        9.9423372336  MEMB      39              0.0000000000
      4309        39  POPC      H6Y            12.0507654358       23.6407404728        9.8701883988  MEMB      39              0.0000000000
      4310        39  POPC      C37            14.2818184334       23.3998770229        9.9750829321  MEMB      39              0.0000000000
      4311        39  POPC      H7X            14.4348726657       22.3818847737       10.3929188537  MEMB      39              0.0000000000
      4312        39  POPC      H7Y            15.0693883146       24.0211543149       10.4526491622  MEMB      39              0.0000000000
      4313        39  POPC      C38            14.5031853805       23.4435244458        8.4680464871  MEMB      39              0.0000000000
      4314        39  POPC      H8X            15.4318355271       22.9132136441        8.1668809567  MEMB      39              0.0000000000
      4315        39  POPC      H8Y            14.5154543951       24.4982055930        8.1190219015  MEMB      39              0.0000000000
      4316        39  POPC      C39            13.3287138855       22.8775105863        7.6346539563  MEMB      39              0.0000000000
      4317        39  POPC      H9X            13.4039256559       23.3525084214        6.6331344763  MEMB      39              0.0000000000
      4318        39  POPC      H9Y            12.3207598149       23.2044892187        7.9684719263  MEMB      39              0.0000000000
      4319        39  POPC      C310           13.4216226155       21.2727461473        7.4256168286  MEMB      39              0.0000000000
      4320        39  POPC      H10X           13.2590202150       20.7709649168        8.4034188889  MEMB      39              0.0000000000
      4321        39  POPC      H10Y           14.4676228147       21.0747572568        7.1078031083  MEMB      39              0.0000000000
      4322        39  POPC      C311           12.3905302229       20.5415187169        6.4794696014  MEMB      39              0.0000000000
      4323        39  POPC      H11X           12.4875103532       21.1281129178        5.5409476150  MEMB      39              0.0000000000
      4324        39  POPC      H11Y           11.4561542877       20.7330743327        7.0491797540  MEMB      39              0.0000000000
      4325        39  POPC      C312           12.6086997455       19.0636729401        6.1504387902  MEMB      39              0.0000000000
      4326        39  POPC      H12X           11.6748865443       18.6421228370        5.7207760837  MEMB      39              0.0000000000
      4327        39  POPC      H12Y           12.8411096878       18.5373326372        7.1008451258  MEMB      39              0.0000000000
      4328        39  POPC      C313           13.9376123878       18.8378025568        5.2987169847  MEMB      39              0.0000000000
      4329        39  POPC      H13X           14.0994321795       17.7386522192        5.3006787032  MEMB      39              0.0000000000
      4330        39  POPC      H13Y           14.7907744281       19.3546382654        5.7879175409  MEMB      39              0.0000000000
      4331        39  POPC      C314           13.8139638181       19.2250680089        3.8648333999  MEMB      39              0.0000000000
      4332        39  POPC      H14X           13.8259655219       20.3323757406        3.7751315932  MEMB      39              0.0000000000
      4333        39  POPC      H14Y           12.8800726401       18.8371114230        3.4047701124  MEMB      39              0.0000000000
      4334        39  POPC      C315           14.9907052786       18.7305568430        3.0931230811  MEMB      39              0.0000000000
      4335        39  POPC      H15X           15.1936959746       17.6395968633        3.1471793156  MEMB      39              0.0000000000
      4336        39  POPC      H15Y           15.9484111648       19.2195160954        3.3724780728  MEMB      39              0.0000000000
      4337        39  POPC      C316           14.7575256687       18.9865915954        1.5190675998  MEMB      39              0.0000000000
      4338        39  POPC      H16X           15.4796662536       18.5004061549        0.8288078114  MEMB      39              0.0000000000
      4339        39  POPC      H16Y           14.5533314923       20.0555570266        1.2955972087  MEMB      39              0.0000000000
      4340        39  POPC      H16Z           13.8559877461       18.4273759150        1.1891751316  MEMB      39              0.0000000000
      4341        40  CHL1      C3             -5.6752366889       25.9531081134       17.3377950000  MEMB      40              0.0000000000
      4342        40  CHL1      H3             -6.2194124340       26.9040155424       17.5221250000  MEMB      40              0.0000000000
      4343        40  CHL1      O3             -5.5559544111       25.4595684866       18.6622050000  MEMB      40              0.0000000000
      4344        40  CHL1      H3'            -5.2447842238       26.2293027554       19.1441550000  MEMB      40              0.0000000000
      4345        40  CHL1      C4             -6.4185864713       24.9121731512       16.4991650000  MEMB      40              0.0000000000
      4346        40  CHL1      H4A            -5.7969232394       23.9917498082       16.5251050000  MEMB      40              0.0000000000
      4347        40  CHL1      H4B            -7.4211935554       24.5552389179       16.8180650000  MEMB      40              0.0000000000
      4348        40  CHL1      C5             -6.5420712631       25.3699746670       15.0399650000  MEMB      40              0.0000000000
      4349        40  CHL1      C6             -7.7526659325       25.4199092456       14.4654750000  MEMB      40              0.0000000000
      4350        40  CHL1      H6             -8.6862739987       25.1702891472       14.9908950000  MEMB      40              0.0000000000
      4351        40  CHL1      C7             -7.9187480522       25.6914374932       12.9903050000  MEMB      40              0.0000000000
      4352        40  CHL1      H7A            -8.7494425156       25.1008764907       12.5481550000  MEMB      40              0.0000000000
      4353        40  CHL1      H7B            -8.2168903972       26.7609256687       12.9498350000  MEMB      40              0.0000000000
      4354        40  CHL1      C8             -6.5879508214       25.6191563570       12.2506550000  MEMB      40              0.0000000000
      4355        40  CHL1      H8             -6.3329249682       24.5407875767       12.1707050000  MEMB      40              0.0000000000
      4356        40  CHL1      C14            -6.7899824084       26.2564273785       10.9311750000  MEMB      40              0.0000000000
      4357        40  CHL1      H14            -6.9600379303       27.3390737963       11.1135950000  MEMB      40              0.0000000000
      4358        40  CHL1      C15            -7.9695104916       25.8338654063       10.0262550000  MEMB      40              0.0000000000
      4359        40  CHL1      H15A           -7.8724002136       24.7284614626       10.0808050000  MEMB      40              0.0000000000
      4360        40  CHL1      H15B           -8.9576008403       26.2349486503       10.3378950000  MEMB      40              0.0000000000
      4361        40  CHL1      C16            -7.4844894273       26.1987764329        8.6093950000  MEMB      40              0.0000000000
      4362        40  CHL1      H16A           -7.4369809255       25.3156494659        7.9369650000  MEMB      40              0.0000000000
      4363        40  CHL1      H16B           -8.0538187350       27.0195191309        8.1230050000  MEMB      40              0.0000000000
      4364        40  CHL1      C17            -6.0023336729       26.7114019694        8.7279050000  MEMB      40              0.0000000000
      4365        40  CHL1      H17            -6.2348679756       27.7617018442        9.0056050000  MEMB      40              0.0000000000
      4366        40  CHL1      C13            -5.4658909326       26.2597341834       10.1033750000  MEMB      40              0.0000000000
      4367        40  CHL1      C18            -4.9454675027       24.8174452744        9.8059350000  MEMB      40              0.0000000000
      4368        40  CHL1      H18A           -5.7283361964       24.3144524182        9.1989450000  MEMB      40              0.0000000000
      4369        40  CHL1      H18B           -3.9564908702       24.8407382935        9.3002750000  MEMB      40              0.0000000000
      4370        40  CHL1      H18C           -4.7896499703       24.3190978552       10.7865950000  MEMB      40              0.0000000000
      4371        40  CHL1      C12            -4.4999634043       27.1825594361       10.8175250000  MEMB      40              0.0000000000
      4372        40  CHL1      H12A           -3.4795652221       27.1660991620       10.3783950000  MEMB      40              0.0000000000
      4373        40  CHL1      H12B           -4.8513029652       28.2281253580       10.9505050000  MEMB      40              0.0000000000
      4374        40  CHL1      C11            -4.2122209299       26.6611747382       12.2343750000  MEMB      40              0.0000000000
      4375        40  CHL1      H11A           -3.6266591690       25.7249522876       12.1122150000  MEMB      40              0.0000000000
      4376        40  CHL1      H11B           -3.6127555473       27.3634671348       12.8522250000  MEMB      40              0.0000000000
      4377        40  CHL1      C9             -5.5042839388       26.4409259357       13.0066350000  MEMB      40              0.0000000000
      4378        40  CHL1      H9             -5.8708395750       27.4799433041       13.1494550000  MEMB      40              0.0000000000
      4379        40  CHL1      C10            -5.2071278784       25.8192384396       14.4255550000  MEMB      40              0.0000000000
      4380        40  CHL1      C19            -4.3446975837       24.5238923321       14.3485550000  MEMB      40              0.0000000000
      4381        40  CHL1      H19A           -4.2552380071       23.8474035482       15.2253050000  MEMB      40              0.0000000000
      4382        40  CHL1      H19B           -4.7672452729       23.8845614056       13.5441750000  MEMB      40              0.0000000000
      4383        40  CHL1      H19C           -3.3349588659       24.8905533891       14.0651850000  MEMB      40              0.0000000000
      4384        40  CHL1      C1             -4.5282411628       26.8761587304       15.3656450000  MEMB      40              0.0000000000
      4385        40  CHL1      H1A            -3.4868351268       27.0927303506       15.0448850000  MEMB      40              0.0000000000
      4386        40  CHL1      H1B            -5.2538339945       27.7174273889       15.3764750000  MEMB      40              0.0000000000
      4387        40  CHL1      C2             -4.3558431471       26.3910693870       16.8125250000  MEMB      40              0.0000000000
      4388        40  CHL1      H2A            -3.9806248814       27.2038503252       17.4704950000  MEMB      40              0.0000000000
      4389        40  CHL1      H2B            -3.5885041665       25.6072060100       16.9887750000  MEMB      40              0.0000000000
      4390        40  CHL1      C20            -5.1526118451       26.6165173313        7.3785550000  MEMB      40              0.0000000000
      4391        40  CHL1      H20            -4.9617698111       25.5551772016        7.1112150000  MEMB      40              0.0000000000
      4392        40  CHL1      C21            -3.8091922537       27.1826004912        7.4854750000  MEMB      40              0.0000000000
      4393        40  CHL1      H21A           -3.8394192210       27.9766075885        8.2619850000  MEMB      40              0.0000000000
      4394        40  CHL1      H21B           -3.3525470098       27.4001313996        6.4962950000  MEMB      40              0.0000000000
      4395        40  CHL1      H21C           -3.1566614807       26.3613336069        7.8516050000  MEMB      40              0.0000000000
      4396        40  CHL1      C22            -6.0288782993       27.1104631447        6.2325850000  MEMB      40              0.0000000000
      4397        40  CHL1      H22A           -6.9248531013       26.4543967364        6.2664650000  MEMB      40              0.0000000000
      4398        40  CHL1      H22B           -6.3735693428       28.1545570557        6.3918850000  MEMB      40              0.0000000000
      4399        40  CHL1      C23            -5.4975109752       26.8484121690        4.9082750000  MEMB      40              0.0000000000
      4400        40  CHL1      H23A           -4.8185685267       27.6786787951        4.6184050000  MEMB      40              0.0000000000
      4401        40  CHL1      H23B           -4.7882048176       25.9942708904        4.8677250000  MEMB      40              0.0000000000
      4402        40  CHL1      C24            -6.5612751091       26.8657854215        3.8220650000  MEMB      40              0.0000000000
      4403        40  CHL1      H24A           -7.2111010874       25.9674607109        3.8931850000  MEMB      40              0.0000000000
      4404        40  CHL1      H24B           -7.1717606765       27.7907337968        3.9002050000  MEMB      40              0.0000000000
      4405        40  CHL1      C25            -5.9702346157       26.9959025455        2.3996250000  MEMB      40              0.0000000000
      4406        40  CHL1      H25            -5.6789657447       28.0298162157        2.1158950000  MEMB      40              0.0000000000
      4407        40  CHL1      C26            -4.7571469272       26.0591577246        2.1286450000  MEMB      40              0.0000000000
      4408        40  CHL1      H26A           -4.6169191618       25.8067622674        1.0558250000  MEMB      40              0.0000000000
      4409        40  CHL1      H26B           -3.8625300443       26.5141714406        2.6050250000  MEMB      40              0.0000000000
      4410        40  CHL1      H26C           -5.0100389852       25.0937656337        2.6168950000  MEMB      40              0.0000000000
      4411        40  CHL1      C27            -7.0021998622       26.8056756040        1.3721150000  MEMB      40              0.0000000000
      4412        40  CHL1      H27A           -7.8693452533       27.4691592591        1.5774850000  MEMB      40              0.0000000000
      4413        40  CHL1      H27B           -6.5589358088       26.9169437930        0.3594750000  MEMB      40              0.0000000000
      4414        40  CHL1      H27C           -7.4285279485       25.7925558379        1.5338350000  MEMB      40              0.0000000000
      4415        41  OSM       N               2.8635862713      -25.4036635715       22.5402198019  MEMB      41              0.0000000000
      4416        41  OSM       C15             3.9972145106      -24.4074752366       22.5152741368  MEMB      41              0.0000000000
      4417        41  OSM       H15A            4.6879929329      -24.5666337107       23.3300707990  MEMB      41              0.0000000000
      4418        41  OSM       H15B            3.6383015872      -23.4011538254       22.6730672672  MEMB      41              0.0000000000
      4419        41  OSM       H15C            4.5299842737      -24.3783546811       21.5762808380  MEMB      41              0.0000000000
      4420        41  OSM       C14             2.4929973620      -25.7351051771       23.9572234924  MEMB      41              0.0000000000
      4421        41  OSM       H14A            1.7946201538      -25.0065516396       24.3417738789  MEMB      41              0.0000000000
      4422        41  OSM       H14B            3.3813232600      -25.7237078941       24.5713468466  MEMB      41              0.0000000000
      4423        41  OSM       H14C            1.9643530628      -26.6763443104       23.9255379188  MEMB      41              0.0000000000
      4424        41  OSM       C13             1.5768550942      -24.8468643593       21.8750812474  MEMB      41              0.0000000000
      4425        41  OSM       H13A            1.7792496036      -24.5278323102       20.8633228422  MEMB      41              0.0000000000
      4426        41  OSM       H13B            1.4397497001      -23.9396797004       22.4448340448  MEMB      41              0.0000000000
      4427        41  OSM       H13C            0.7253961010      -25.5110130633       21.8570816347  MEMB      41              0.0000000000
      4428        41  OSM       C12             3.3323457671      -26.7260631800       21.8305810535  MEMB      41              0.0000000000
      4429        41  OSM       H12A            2.5686487234      -27.4654338052       22.0216253519  MEMB      41              0.0000000000
      4430        41  OSM       H12B            4.2528382631      -27.0910501129       22.2617167309  MEMB      41              0.0000000000
      4431        41  OSM       C11             3.3832195274      -26.5673791716       20.3441040790  MEMB      41              0.0000000000
      4432        41  OSM       H11A            3.9506934200      -27.4816828711       20.0678015518  MEMB      41              0.0000000000
      4433        41  OSM       H11B            3.9914576572      -25.6902516580       20.0358594769  MEMB      41              0.0000000000
      4434        41  OSM       P               1.0943835298      -27.6876019666       19.6732999999  MEMB      41              0.0000000000
      4435        41  OSM       O13             1.7769788128      -28.9775887407       19.5964551013  MEMB      41              0.0000000000
      4436        41  OSM       O14             0.0799359714      -27.5577004414       20.7304148456  MEMB      41              0.0000000000
      4437        41  OSM       O11             0.3928184344      -27.3884829203       18.2561479704  MEMB      41              0.0000000000
      4438        41  OSM       O12             2.1543290088      -26.4354270352       19.6811982763  MEMB      41              0.0000000000
      4439        41  OSM       C1S             1.1857822336      -26.8344052880       17.2135174106  MEMB      41              0.0000000000
      4440        41  OSM       H1S             2.1238708230      -27.4220449413       17.1186990600  MEMB      41              0.0000000000
      4441        41  OSM       H1T             1.4177151620      -25.7798850943       17.4752718734  MEMB      41              0.0000000000
      4442        41  OSM       NF              1.3806347642      -26.6067390086       14.7793939063  MEMB      41              0.0000000000
      4443        41  OSM       HNF             1.4815162111      -25.6602889379       14.4826372814  MEMB      41              0.0000000000
      4444        41  OSM       C2S             0.4165495309      -26.9459644914       15.8116475897  MEMB      41              0.0000000000
      4445        41  OSM       H2S             0.1450116779      -27.9904226228       15.5476487728  MEMB      41              0.0000000000
      4446        41  OSM       C3S            -0.7194230281      -25.9509033595       15.7547750235  MEMB      41              0.0000000000
      4447        41  OSM       H3S            -0.5025725885      -24.9427766893       16.1682694977  MEMB      41              0.0000000000
      4448        41  OSM       O3             -1.7262064581      -26.5307824114       16.6144969943  MEMB      41              0.0000000000
      4449        41  OSM       HO3            -1.2865216288      -27.2405401467       17.0883336711  MEMB      41              0.0000000000
      4450        41  OSM       C4S            -1.3045026359      -25.8904335250       14.4174554667  MEMB      41              0.0000000000
      4451        41  OSM       H4S            -2.0946246772      -26.5858734975       14.0979711966  MEMB      41              0.0000000000
      4452        41  OSM       C5S            -0.9886164710      -24.9312872250       13.5658184870  MEMB      41              0.0000000000
      4453        41  OSM       H5S            -0.3171679267      -24.1406864876       13.9320250928  MEMB      41              0.0000000000
      4454        41  OSM       C6S            -1.5905808329      -24.7468114578       12.1765298708  MEMB      41              0.0000000000
      4455        41  OSM       H6S            -2.0157309246      -23.7205483492       12.1953149388  MEMB      41              0.0000000000
      4456        41  OSM       H6T            -2.4381658551      -25.4509168729       12.0345567139  MEMB      41              0.0000000000
      4457        41  OSM       C7S            -0.6739506906      -24.8750879887       10.9145646123  MEMB      41              0.0000000000
      4458        41  OSM       H7S             0.2706896900      -24.3003402828       11.0224561083  MEMB      41              0.0000000000
      4459        41  OSM       H7T            -1.2991127004      -24.4356155418       10.1081176157  MEMB      41              0.0000000000
      4460        41  OSM       C8S            -0.2981113176      -26.2644211054       10.6695204205  MEMB      41              0.0000000000
      4461        41  OSM       H8S            -1.2132461292      -26.8765807413       10.5208243843  MEMB      41              0.0000000000
      4462        41  OSM       H8T             0.1933920730      -26.6847747823       11.5728738936  MEMB      41              0.0000000000
      4463        41  OSM       C9S             0.5323428202      -26.5882335837        9.4100104178  MEMB      41              0.0000000000
      4464        41  OSM       H9S             1.5567380880      -26.1601307799        9.4507937915  MEMB      41              0.0000000000
      4465        41  OSM       H9T             0.0039928317      -26.1176625110        8.5534297776  MEMB      41              0.0000000000
      4466        41  OSM       C10S            0.7595587487      -28.0604335473        9.1362056494  MEMB      41              0.0000000000
      4467        41  OSM       H10S           -0.2279944490      -28.5454989069        8.9820264305  MEMB      41              0.0000000000
      4468        41  OSM       H10T            1.2875904261      -28.6248429651        9.9342944555  MEMB      41              0.0000000000
      4469        41  OSM       C11S            1.6197641114      -28.3759324969        7.8657627373  MEMB      41              0.0000000000
      4470        41  OSM       H11S            2.0394136668      -29.3823468682        8.0787066153  MEMB      41              0.0000000000
      4471        41  OSM       H11T            2.3478096392      -27.5458284239        7.7424826450  MEMB      41              0.0000000000
      4472        41  OSM       C12S            0.6951073105      -28.5395088761        6.6490741110  MEMB      41              0.0000000000
      4473        41  OSM       H12S           -0.0478284100      -27.7174301831        6.5681162932  MEMB      41              0.0000000000
      4474        41  OSM       H12T            0.0700268481      -29.4401026706        6.8294258851  MEMB      41              0.0000000000
      4475        41  OSM       C13S            1.4229091438      -28.5962232134        5.3463159775  MEMB      41              0.0000000000
      4476        41  OSM       H13S            2.1532866587      -29.4331989445        5.3278346398  MEMB      41              0.0000000000
      4477        41  OSM       H13T            1.8796458247      -27.5896088113        5.2347798761  MEMB      41              0.0000000000
      4478        41  OSM       C14S            0.4222038676      -28.9225616902        4.2640862689  MEMB      41              0.0000000000
      4479        41  OSM       H14S           -0.2530648848      -28.0803366188        4.0014268938  MEMB      41              0.0000000000
      4480        41  OSM       H14T           -0.1591713892      -29.8054346137        4.6059327863  MEMB      41              0.0000000000
      4481        41  OSM       C15S            0.9609461522      -29.3820548816        2.8639666043  MEMB      41              0.0000000000
      4482        41  OSM       H15S            0.1891129000      -29.5031382864        2.0740728020  MEMB      41              0.0000000000
      4483        41  OSM       H15T            1.3859447290      -30.4001102658        2.9953475550  MEMB      41              0.0000000000
      4484        41  OSM       C16S            2.0442027886      -28.4431883309        2.3287751138  MEMB      41              0.0000000000
      4485        41  OSM       H16S            3.0444480753      -28.5773721317        2.7933456130  MEMB      41              0.0000000000
      4486        41  OSM       H16T            1.6545457699      -27.4233977574        2.5349700217  MEMB      41              0.0000000000
      4487        41  OSM       C17S            2.1574305423      -28.6521494643        0.7906788353  MEMB      41              0.0000000000
      4488        41  OSM       H17S            2.7874583923      -27.8252093313        0.3988172915  MEMB      41              0.0000000000
      4489        41  OSM       H17T            1.1435574655      -28.6336101612        0.3367630670  MEMB      41              0.0000000000
      4490        41  OSM       C18S            2.8936335298      -29.9188991092        0.2622600787  MEMB      41              0.0000000000
      4491        41  OSM       H18S            2.2211248998      -30.7617715721        0.5298768517  MEMB      41              0.0000000000
      4492        41  OSM       H18T            3.9160903809      -29.9294419662        0.6967615918  MEMB      41              0.0000000000
      4493        41  OSM       H18U            3.0850478527      -29.9017268409       -0.8319929572  MEMB      41              0.0000000000
      4494        41  OSM       C1F             2.3937930459      -27.3629114624       14.2940809856  MEMB      41              0.0000000000
      4495        41  OSM       OF              2.4443951928      -28.5960153574       14.4284333342  MEMB      41              0.0000000000
      4496        41  OSM       C2F             3.5036708620      -26.5584290063       13.6934027154  MEMB      41              0.0000000000
      4497        41  OSM       H2F             4.2222701099      -26.4601911790       14.5349997259  MEMB      41              0.0000000000
      4498        41  OSM       H2G             3.1801435180      -25.5323618093       13.4162075618  MEMB      41              0.0000000000
      4499        41  OSM       C3F             4.1306549650      -27.2063779111       12.4154584769  MEMB      41              0.0000000000
      4500        41  OSM       H3F             3.4143581224      -27.7554368753       11.7675582900  MEMB      41              0.0000000000
      4501        41  OSM       H3G             4.9137453134      -27.9412954160       12.7000402119  MEMB      41              0.0000000000
      4502        41  OSM       C4F             4.8874759930      -26.2290865209       11.5170429360  MEMB      41              0.0000000000
      4503        41  OSM       H4F             5.5440897316      -25.5885436467       12.1438473961  MEMB      41              0.0000000000
      4504        41  OSM       H4G             4.1216661064      -25.5232079969       11.1302719028  MEMB      41              0.0000000000
      4505        41  OSM       C5F             5.7065630052      -26.9900463121       10.4007549108  MEMB      41              0.0000000000
      4506        41  OSM       H5F             6.1842460663      -27.8905569853       10.8425926002  MEMB      41              0.0000000000
      4507        41  OSM       H5G             6.4625230236      -26.2514337811       10.0582673420  MEMB      41              0.0000000000
      4508        41  OSM       C6F             4.6912838175      -27.3733821853        9.2063608828  MEMB      41              0.0000000000
      4509        41  OSM       H6F             3.9044390808      -26.6663277749        8.8668459393  MEMB      41              0.0000000000
      4510        41  OSM       H6G             4.1760544021      -28.2387038188        9.6754857555  MEMB      41              0.0000000000
      4511        41  OSM       C7F             5.3837629209      -27.7979600207        7.9755727762  MEMB      41              0.0000000000
      4512        41  OSM       H7F             4.9513955982      -28.7977418189        7.7569046707  MEMB      41              0.0000000000
      4513        41  OSM       H7G             6.4656993643      -27.9379724892        8.1856462404  MEMB      41              0.0000000000
      4514        41  OSM       C8F             5.1574755141      -26.9183714899        6.6893728044  MEMB      41              0.0000000000
      4515        41  OSM       H8F             4.0832628591      -27.0304477817        6.4289365610  MEMB      41              0.0000000000
      4516        41  OSM       H8G             5.5888063339      -27.5303288388        5.8685299249  MEMB      41              0.0000000000
      4517        41  OSM       C9F             5.5018328795      -25.3883838554        6.5517271706  MEMB      41              0.0000000000
      4518        41  OSM       H9F             6.5593631963      -25.1886244569        6.3242941099  MEMB      41              0.0000000000
      4519        41  OSM       C10F            4.6634168443      -24.3489426564        6.5953457787  MEMB      41              0.0000000000
      4520        41  OSM       H10F            5.0826013380      -23.3545360524        6.3821796859  MEMB      41              0.0000000000
      4521        41  OSM       C11F            3.1299263920      -24.3413608558        6.7932540129  MEMB      41              0.0000000000
      4522        41  OSM       H11F            2.8557390787      -23.7886060459        7.7171608163  MEMB      41              0.0000000000
      4523        41  OSM       H11G            2.7130746263      -25.3584861185        6.9545344229  MEMB      41              0.0000000000
      4524        41  OSM       C12F            2.3428254260      -23.6353793946        5.6350243371  MEMB      41              0.0000000000
      4525        41  OSM       H12F            2.6367928352      -22.5843591394        5.4270328746  MEMB      41              0.0000000000
      4526        41  OSM       H12G            1.2737128087      -23.6844567452        5.9332037274  MEMB      41              0.0000000000
      4527        41  OSM       C13F            2.5446578573      -24.4780599675        4.3197544734  MEMB      41              0.0000000000
      4528        41  OSM       H13F            2.1465666969      -25.4986193012        4.5049677565  MEMB      41              0.0000000000
      4529        41  OSM       H13G            3.6352601178      -24.6602464156        4.2115178344  MEMB      41              0.0000000000
      4530        41  OSM       C14F            1.8220792938      -23.9823730400        3.0666913547  MEMB      41              0.0000000000
      4531        41  OSM       H14F            0.8248682257      -23.5174219461        3.2206801544  MEMB      41              0.0000000000
      4532        41  OSM       H14G            1.6973545144      -24.8593385693        2.3960985841  MEMB      41              0.0000000000
      4533        41  OSM       C15F            2.7012334526      -22.9636542830        2.2857014134  MEMB      41              0.0000000000
      4534        41  OSM       H15F            3.7195659009      -23.3734797474        2.1143436208  MEMB      41              0.0000000000
      4535        41  OSM       H15G            2.8665291119      -22.0566796802        2.9056970990  MEMB      41              0.0000000000
      4536        41  OSM       C16F            2.1049372386      -22.4424438131        0.9036855797  MEMB      41              0.0000000000
      4537        41  OSM       H16F            1.0967043862      -21.9944198784        1.0343065503  MEMB      41              0.0000000000
      4538        41  OSM       H16G            2.0208483001      -23.3904122426        0.3304434474  MEMB      41              0.0000000000
      4539        41  OSM       C17F            2.9539988411      -21.4703516233        0.1628934528  MEMB      41              0.0000000000
      4540        41  OSM       H17F            3.9584585850      -21.9360374867        0.0706020927  MEMB      41              0.0000000000
      4541        41  OSM       H17G            3.0372351551      -20.5390575408        0.7629644353  MEMB      41              0.0000000000
      4542        41  OSM       C18F            2.4933401673      -21.1043298328       -1.3063128376  MEMB      41              0.0000000000
      4543        41  OSM       H18F            3.0854939989      -20.2505189150       -1.6996099464  MEMB      41              0.0000000000
      4544        41  OSM       H18G            1.3923829069      -20.9553573345       -1.3109414898  MEMB      41              0.0000000000
      4545        41  OSM       H18H            2.7791161868      -21.9558525408       -1.9601954658  MEMB      41              0.0000000000
      4546        42  OSM       N               9.1454906532       23.3802328239       20.6895335088  MEMB      42              0.0000000000
      4547        42  OSM       C15             9.2058203800       24.3129480587       19.5022320816  MEMB      42              0.0000000000
      4548        42  OSM       H15A            9.9505335087       23.9531791378       18.8077045631  MEMB      42              0.0000000000
      4549        42  OSM       H15B            9.5181956020       25.3145467276       19.7583996683  MEMB      42              0.0000000000
      4550        42  OSM       H15C            8.2243741590       24.4079440434       19.0616197359  MEMB      42              0.0000000000
      4551        42  OSM       C14             8.3142723979       22.1431267211       20.2806218167  MEMB      42              0.0000000000
      4552        42  OSM       H14A            8.4455217809       21.3688088411       21.0219757389  MEMB      42              0.0000000000
      4553        42  OSM       H14B            8.5457014249       21.8122639319       19.2789380056  MEMB      42              0.0000000000
      4554        42  OSM       H14C            7.2625915738       22.3888215806       20.2817890625  MEMB      42              0.0000000000
      4555        42  OSM       C13            10.5412827261       22.9870492435       21.0749686453  MEMB      42              0.0000000000
      4556        42  OSM       H13A           11.0888331982       22.5081600852       20.2766870326  MEMB      42              0.0000000000
      4557        42  OSM       H13B           10.6012059425       22.2401210765       21.8527265531  MEMB      42              0.0000000000
      4558        42  OSM       H13C           11.1943825758       23.7870285987       21.3910283121  MEMB      42              0.0000000000
      4559        42  OSM       C12             8.4526180082       24.0384759386       21.7856141036  MEMB      42              0.0000000000
      4560        42  OSM       H12A            8.7361747782       23.4191468258       22.6237233257  MEMB      42              0.0000000000
      4561        42  OSM       H12B            7.3981131989       23.8301212311       21.6806950316  MEMB      42              0.0000000000
      4562        42  OSM       C11             8.7134333696       25.5730331030       21.9543902387  MEMB      42              0.0000000000
      4563        42  OSM       H11A            9.8204994628       25.4891345592       21.9133222507  MEMB      42              0.0000000000
      4564        42  OSM       H11B            8.2952448173       25.8567468283       22.9438070956  MEMB      42              0.0000000000
      4565        42  OSM       P               6.9647814548       27.4610241232       21.2299074469  MEMB      42              0.0000000000
      4566        42  OSM       O13             5.9193153639       26.6729968488       21.8637114276  MEMB      42              0.0000000000
      4567        42  OSM       O14             7.4213900034       28.6827373204       21.9229687774  MEMB      42              0.0000000000
      4568        42  OSM       O11             6.4580485061       27.7903502909       19.7529799363  MEMB      42              0.0000000000
      4569        42  OSM       O12             8.2073796182       26.5001719364       20.9430720221  MEMB      42              0.0000000000
      4570        42  OSM       C1S             5.9795869014       26.7122913816       18.9641424051  MEMB      42              0.0000000000
      4571        42  OSM       H1S             5.0143647415       26.4454403767       19.4452431183  MEMB      42              0.0000000000
      4572        42  OSM       H1T             6.5573861679       25.7712334695       19.0861214400  MEMB      42              0.0000000000
      4573        42  OSM       NF              7.2867339032       27.5431943773       17.0693840296  MEMB      42              0.0000000000
      4574        42  OSM       HNF             7.3842058845       28.4476653034       16.6614131333  MEMB      42              0.0000000000
      4575        42  OSM       C2S             5.9108584653       27.2237845441       17.4926704169  MEMB      42              0.0000000000
      4576        42  OSM       H2S             5.6200943514       26.4309087775       16.7707804448  MEMB      42              0.0000000000
      4577        42  OSM       C3S             4.9347279296       28.3883556192       17.4479204157  MEMB      42              0.0000000000
      4578        42  OSM       H3S             5.2710986349       29.2165586128       18.1076593187  MEMB      42              0.0000000000
      4579        42  OSM       O3              3.6716414208       27.9748043969       17.8644462272  MEMB      42              0.0000000000
      4580        42  OSM       HO3             3.8506853267       27.1433709262       18.3097121483  MEMB      42              0.0000000000
      4581        42  OSM       C4S             4.7599047866       28.9705800791       16.0143009697  MEMB      42              0.0000000000
      4582        42  OSM       H4S             5.1718424044       29.9899930922       16.0475313970  MEMB      42              0.0000000000
      4583        42  OSM       C5S             4.0352180311       28.6510364648       14.9024440398  MEMB      42              0.0000000000
      4584        42  OSM       H5S             3.4278354518       27.7435200747       15.0347332514  MEMB      42              0.0000000000
      4585        42  OSM       C6S             4.1010330023       29.4690175157       13.6169526058  MEMB      42              0.0000000000
      4586        42  OSM       H6S             4.7344461284       30.3767184861       13.7128044531  MEMB      42              0.0000000000
      4587        42  OSM       H6T             3.1114409515       29.9044788130       13.3612150618  MEMB      42              0.0000000000
      4588        42  OSM       C7S             4.5301136128       28.7931419506       12.3269386425  MEMB      42              0.0000000000
      4589        42  OSM       H7S             3.8020960949       28.0479534698       11.9409259234  MEMB      42              0.0000000000
      4590        42  OSM       H7T             5.4640662445       28.2823036488       12.6448963059  MEMB      42              0.0000000000
      4591        42  OSM       C8S             4.6194816544       29.9643942918       11.3457074486  MEMB      42              0.0000000000
      4592        42  OSM       H8S             5.3224138371       30.7670265315       11.6555281091  MEMB      42              0.0000000000
      4593        42  OSM       H8T             3.6411898049       30.4762324680       11.2220647866  MEMB      42              0.0000000000
      4594        42  OSM       C9S             5.1032415014       29.5710258004        9.9490512368  MEMB      42              0.0000000000
      4595        42  OSM       H9S             5.0704434029       30.4221759520        9.2357570732  MEMB      42              0.0000000000
      4596        42  OSM       H9T             4.3442412120       28.8989110655        9.4946270116  MEMB      42              0.0000000000
      4597        42  OSM       C10S            6.4415498131       29.0411784486       10.0573889325  MEMB      42              0.0000000000
      4598        42  OSM       H10S            6.3652872497       28.0269842112       10.5045075620  MEMB      42              0.0000000000
      4599        42  OSM       H10T            7.1317656953       29.7195995153       10.6029792032  MEMB      42              0.0000000000
      4600        42  OSM       C11S            7.1895923660       28.9779551390        8.7204394352  MEMB      42              0.0000000000
      4601        42  OSM       H11S            8.2521638504       28.7908583792        8.9855004946  MEMB      42              0.0000000000
      4602        42  OSM       H11T            7.1789342786       29.9659704727        8.2124690342  MEMB      42              0.0000000000
      4603        42  OSM       C12S            6.5895888905       27.8878434117        7.8160006091  MEMB      42              0.0000000000
      4604        42  OSM       H12S            5.5290921442       28.1049081048        7.5658991319  MEMB      42              0.0000000000
      4605        42  OSM       H12T            6.5540727686       27.0350342035        8.5271797393  MEMB      42              0.0000000000
      4606        42  OSM       C13S            7.4441403436       27.6047785220        6.5864777743  MEMB      42              0.0000000000
      4607        42  OSM       H13S            7.2227803701       26.6301820042        6.1012128093  MEMB      42              0.0000000000
      4608        42  OSM       H13T            8.5106588705       27.5893140830        6.8973153132  MEMB      42              0.0000000000
      4609        42  OSM       C14S            7.3761473149       28.6675814508        5.4849880300  MEMB      42              0.0000000000
      4610        42  OSM       H14S            7.8209040425       29.6395851204        5.7878440892  MEMB      42              0.0000000000
      4611        42  OSM       H14T            6.3003993074       28.8628863858        5.2876485062  MEMB      42              0.0000000000
      4612        42  OSM       C15S            8.0217737492       28.2195939873        4.1423926974  MEMB      42              0.0000000000
      4613        42  OSM       H15S            9.1063253376       28.0073421150        4.2564903019  MEMB      42              0.0000000000
      4614        42  OSM       H15T            8.1093233697       29.1427897728        3.5305390542  MEMB      42              0.0000000000
      4615        42  OSM       C16S            7.4292096507       26.9847067626        3.4028188308  MEMB      42              0.0000000000
      4616        42  OSM       H16S            6.3343440534       26.9444885909        3.5871364313  MEMB      42              0.0000000000
      4617        42  OSM       H16T            7.9639824145       26.0579936998        3.7020534322  MEMB      42              0.0000000000
      4618        42  OSM       C17S            7.6139134217       26.8635188962        1.8811072090  MEMB      42              0.0000000000
      4619        42  OSM       H17S            8.6612036739       27.1858157044        1.6977253756  MEMB      42              0.0000000000
      4620        42  OSM       H17T            7.0076267168       27.6507322959        1.3840834753  MEMB      42              0.0000000000
      4621        42  OSM       C18S            7.3201005383       25.4933169161        1.3007525234  MEMB      42              0.0000000000
      4622        42  OSM       H18S            6.3308711550       25.0661522146        1.5714493070  MEMB      42              0.0000000000
      4623        42  OSM       H18T            8.0879540011       24.8145244061        1.7296629083  MEMB      42              0.0000000000
      4624        42  OSM       H18U            7.6262198717       25.3603507205        0.2410687285  MEMB      42              0.0000000000
      4625        42  OSM       C1F             8.3006196515       26.6307040020       16.9752440241  MEMB      42              0.0000000000
      4626        42  OSM       OF              8.1230962088       25.4476717618       16.8797306661  MEMB      42              0.0000000000
      4627        42  OSM       C2F             9.7044379761       27.1106669117       17.0894740853  MEMB      42              0.0000000000
      4628        42  OSM       H2F             9.9847097393       26.6858863017       18.0770621406  MEMB      42              0.0000000000
      4629        42  OSM       H2G             9.6567370224       28.2201076124       17.0550229927  MEMB      42              0.0000000000
      4630        42  OSM       C3F            10.7840840143       26.4958328213       16.1245718413  MEMB      42              0.0000000000
      4631        42  OSM       H3F            10.9695879669       25.4243499040       16.3522416311  MEMB      42              0.0000000000
      4632        42  OSM       H3G            11.7210769213       26.9943409759       16.4529848846  MEMB      42              0.0000000000
      4633        42  OSM       C4F            10.5648912531       26.9214492080       14.7031453605  MEMB      42              0.0000000000
      4634        42  OSM       H4F            11.5427897343       27.1578596241       14.2318227428  MEMB      42              0.0000000000
      4635        42  OSM       H4G            10.0888521567       27.9197985341       14.8080565854  MEMB      42              0.0000000000
      4636        42  OSM       C5F             9.7760531937       25.9207249047       13.8327004996  MEMB      42              0.0000000000
      4637        42  OSM       H5F             8.8109658471       25.7166987752       14.3438764653  MEMB      42              0.0000000000
      4638        42  OSM       H5G            10.2937284973       24.9396325805       13.7711295153  MEMB      42              0.0000000000
      4639        42  OSM       C6F             9.5141041352       26.4410726702       12.3786906215  MEMB      42              0.0000000000
      4640        42  OSM       H6F            10.3516393061       26.2329632860       11.6790144830  MEMB      42              0.0000000000
      4641        42  OSM       H6G             9.3817858636       27.5427974972       12.3237772611  MEMB      42              0.0000000000
      4642        42  OSM       C7F             8.2092797170       25.8596912899       11.7968078992  MEMB      42              0.0000000000
      4643        42  OSM       H7F             7.8632727362       26.6608058954       11.1091924067  MEMB      42              0.0000000000
      4644        42  OSM       H7G             7.4614142529       25.6588111763       12.5934669949  MEMB      42              0.0000000000
      4645        42  OSM       C8F             8.3607550511       24.5054636901       10.9859221503  MEMB      42              0.0000000000
      4646        42  OSM       H8F             8.7543189808       23.7758854867       11.7256135551  MEMB      42              0.0000000000
      4647        42  OSM       H8G             9.1851719178       24.6439253980       10.2541523128  MEMB      42              0.0000000000
      4648        42  OSM       C9F             6.9865490961       24.0186976455       10.5028069034  MEMB      42              0.0000000000
      4649        42  OSM       H9F             6.3498840962       23.5289936058       11.2543708019  MEMB      42              0.0000000000
      4650        42  OSM       C10F            6.7013552543       24.0529039309        9.1723308280  MEMB      42              0.0000000000
      4651        42  OSM       H10F            5.6605200744       23.9189115393        8.8426215210  MEMB      42              0.0000000000
      4652        42  OSM       C11F            7.6433249595       24.5526495532        8.0733743008  MEMB      42              0.0000000000
      4653        42  OSM       H11F            8.3232088837       25.3923726749        8.3321089352  MEMB      42              0.0000000000
      4654        42  OSM       H11G            6.9609562835       24.8336496320        7.2428719453  MEMB      42              0.0000000000
      4655        42  OSM       C12F            8.3730158148       23.3219030430        7.5164817153  MEMB      42              0.0000000000
      4656        42  OSM       H12F            7.8851365880       22.3238538227        7.5026087484  MEMB      42              0.0000000000
      4657        42  OSM       H12G            9.2186104005       23.1443925772        8.2148951403  MEMB      42              0.0000000000
      4658        42  OSM       C13F            8.8044835019       23.7196841406        6.0458771745  MEMB      42              0.0000000000
      4659        42  OSM       H13F            9.3582900110       24.6781180976        6.1408701208  MEMB      42              0.0000000000
      4660        42  OSM       H13G            7.8877670010       23.8988208492        5.4443275634  MEMB      42              0.0000000000
      4661        42  OSM       C14F            9.6626742758       22.6599865717        5.2801515845  MEMB      42              0.0000000000
      4662        42  OSM       H14F            8.9761878685       21.7864887349        5.2878319762  MEMB      42              0.0000000000
      4663        42  OSM       H14G           10.6158031820       22.4939073838        5.8263061302  MEMB      42              0.0000000000
      4664        42  OSM       C15F            9.7539248432       22.9628804024        3.7458816140  MEMB      42              0.0000000000
      4665        42  OSM       H15F            8.8042406369       23.0766227941        3.1806533505  MEMB      42              0.0000000000
      4666        42  OSM       H15G           10.2602517063       22.0427509156        3.3835063649  MEMB      42              0.0000000000
      4667        42  OSM       C16F           10.5309574205       24.2062619185        3.2811443165  MEMB      42              0.0000000000
      4668        42  OSM       H16F           11.5004083443       24.3231472976        3.8110722591  MEMB      42              0.0000000000
      4669        42  OSM       H16G            9.8495096677       25.0790485207        3.3716616157  MEMB      42              0.0000000000
      4670        42  OSM       C17F           10.8980325184       24.0537840171        1.7527733601  MEMB      42              0.0000000000
      4671        42  OSM       H17F            9.9772244052       23.8654797331        1.1603428838  MEMB      42              0.0000000000
      4672        42  OSM       H17G           11.5466510391       23.1632665895        1.6092698188  MEMB      42              0.0000000000
      4673        42  OSM       C18F           11.5343966634       25.3792613435        1.1567787583  MEMB      42              0.0000000000
      4674        42  OSM       H18F           10.7902266714       26.0144692306        0.6304298638  MEMB      42              0.0000000000
      4675        42  OSM       H18G           12.2635324067       25.0636952912        0.3801823803  MEMB      42              0.0000000000
      4676        42  OSM       H18H           12.1787300008       25.9412776503        1.8662089497  MEMB      42              0.0000000000
      4677        43  SAPS      N             -18.2092772363       15.9282000008       20.9746535314  MEMB      43              0.0000000000
      4678        43  SAPS      HN1           -18.3570876928       16.2207525299       21.9616515889  MEMB      43              0.0000000000
      4679        43  SAPS      HN2           -18.2845241624       14.8937395892       20.8983006259  MEMB      43              0.0000000000
      4680        43  SAPS      HN3           -17.2226282937       16.1299176676       20.7149735609  MEMB      43              0.0000000000
      4681        43  SAPS      C12           -19.1884977237       16.6026511899       20.1973903195  MEMB      43              0.0000000000
      4682        43  SAPS      H12A          -19.1423813669       16.3290654223       19.1536354999  MEMB      43              0.0000000000
      4683        43  SAPS      C13           -20.6056006259       16.3159489918       20.6799279152  MEMB      43              0.0000000000
      4684        43  SAPS      O13A          -20.8756555984       15.3592465906       21.4522338969  MEMB      43              0.0000000000
      4685        43  SAPS      O13B          -21.5137903675       16.8985371000       20.0478971208  MEMB      43              0.0000000000
      4686        43  SAPS      C11           -18.8592198334       18.1272657662       20.2423275268  MEMB      43              0.0000000000
      4687        43  SAPS      H11A          -17.7782640044       18.3825152904       20.2688429596  MEMB      43              0.0000000000
      4688        43  SAPS      H11B          -19.2269612568       18.5532864329       21.2002386023  MEMB      43              0.0000000000
      4689        43  SAPS      P             -20.0079863570       20.3441561318       19.3043934283  MEMB      43              0.0000000000
      4690        43  SAPS      O13           -20.8819783825       20.4276470665       20.5714185919  MEMB      43              0.0000000000
      4691        43  SAPS      O14           -18.7265277423       21.1225784319       19.3488926381  MEMB      43              0.0000000000
      4692        43  SAPS      O12           -19.5981467604       18.8189943063       19.1365470150  MEMB      43              0.0000000000
      4693        43  SAPS      O11           -20.8574947734       20.8125844217       18.0443180503  MEMB      43              0.0000000000
      4694        43  SAPS      C1            -22.1465988953       20.2136652810       17.8866127429  MEMB      43              0.0000000000
      4695        43  SAPS      HA            -22.3418188378       19.3260247159       18.5255998537  MEMB      43              0.0000000000
      4696        43  SAPS      HB            -22.9003716698       20.9976768371       18.1134900395  MEMB      43              0.0000000000
      4697        43  SAPS      C2            -22.3570029037       19.8916001873       16.3664787380  MEMB      43              0.0000000000
      4698        43  SAPS      HS            -23.1917108011       19.1843312832       16.1732050767  MEMB      43              0.0000000000
      4699        43  SAPS      O21           -21.2020318285       19.3914142982       15.6880965441  MEMB      43              0.0000000000
      4700        43  SAPS      C21           -20.7715444945       18.2235747707       15.9999221435  MEMB      43              0.0000000000
      4701        43  SAPS      O22           -21.3528074613       17.3655208639       16.6523536069  MEMB      43              0.0000000000
      4702        43  SAPS      C22           -19.3499049203       17.9822019966       15.4119710662  MEMB      43              0.0000000000
      4703        43  SAPS      H2R           -19.1598519415       16.9860266952       15.8656620840  MEMB      43              0.0000000000
      4704        43  SAPS      H2S           -19.4476497324       17.9729527529       14.3053180189  MEMB      43              0.0000000000
      4705        43  SAPS      C3            -22.7263060975       21.2227018519       15.6679598648  MEMB      43              0.0000000000
      4706        43  SAPS      HX            -21.8427238024       21.8831274727       15.8000262962  MEMB      43              0.0000000000
      4707        43  SAPS      HY            -23.6330962416       21.6153449419       16.1757826678  MEMB      43              0.0000000000
      4708        43  SAPS      O31           -23.0701439160       20.9679479868       14.2584478397  MEMB      43              0.0000000000
      4709        43  SAPS      C31           -24.1640530591       20.3829334973       14.0213252185  MEMB      43              0.0000000000
      4710        43  SAPS      O32           -24.9599731052       19.8621686106       14.8103100614  MEMB      43              0.0000000000
      4711        43  SAPS      C32           -24.2255270348       20.1568900261       12.4488565457  MEMB      43              0.0000000000
      4712        43  SAPS      H2X           -23.3346341367       20.4794638752       11.8687041346  MEMB      43              0.0000000000
      4713        43  SAPS      H2Y           -25.1318638644       20.6354779784       12.0201053419  MEMB      43              0.0000000000
      4714        43  SAPS      C23           -18.3621651437       19.0620348244       15.8726832982  MEMB      43              0.0000000000
      4715        43  SAPS      H3R           -17.4434714227       18.5734990938       16.2621133317  MEMB      43              0.0000000000
      4716        43  SAPS      H3S           -18.7748456155       19.5580447653       16.7771113001  MEMB      43              0.0000000000
      4717        43  SAPS      C24           -17.9415566648       20.0652197160       14.7082553604  MEMB      43              0.0000000000
      4718        43  SAPS      H4R           -17.4243272678       19.4713318209       13.9246151301  MEMB      43              0.0000000000
      4719        43  SAPS      H4S           -17.1683978859       20.7816428422       15.0593744137  MEMB      43              0.0000000000
      4720        43  SAPS      C25           -19.1397137692       20.8361629044       14.1734738991  MEMB      43              0.0000000000
      4721        43  SAPS      H5R           -19.6593452927       21.5669746197       14.8105746232  MEMB      43              0.0000000000
      4722        43  SAPS      C26           -19.4952827049       20.7204544722       12.9078484544  MEMB      43              0.0000000000
      4723        43  SAPS      H6R           -20.4303134471       21.2055433418       12.5909789189  MEMB      43              0.0000000000
      4724        43  SAPS      C27           -18.7798040913       19.8057687045       11.8777204825  MEMB      43              0.0000000000
      4725        43  SAPS      H7R           -19.5104667295       19.4888398992       11.1031179134  MEMB      43              0.0000000000
      4726        43  SAPS      H7S           -18.5586747379       18.8792317617       12.4495174905  MEMB      43              0.0000000000
      4727        43  SAPS      C28           -17.4218405358       20.2492975444       11.2657370061  MEMB      43              0.0000000000
      4728        43  SAPS      H8R           -16.5667225436       19.9581767217       11.8934481431  MEMB      43              0.0000000000
      4729        43  SAPS      C29           -17.2501022179       20.9358704665       10.0866212979  MEMB      43              0.0000000000
      4730        43  SAPS      H9R           -16.3382897661       21.5268579294        9.9153558133  MEMB      43              0.0000000000
      4731        43  SAPS      C210          -18.2968923410       21.3812610856        9.1429457605  MEMB      43              0.0000000000
      4732        43  SAPS      H10R          -18.3462727926       22.4899534261        9.1947520001  MEMB      43              0.0000000000
      4733        43  SAPS      H10S          -19.2980902266       21.0477316458        9.4903381164  MEMB      43              0.0000000000
      4734        43  SAPS      C211          -18.1933902628       20.9593203109        7.7074884097  MEMB      43              0.0000000000
      4735        43  SAPS      H11R          -17.1919119117       20.6827655381        7.3461593410  MEMB      43              0.0000000000
      4736        43  SAPS      C212          -19.2023189182       20.7547375482        6.8556757069  MEMB      43              0.0000000000
      4737        43  SAPS      H12R          -18.8616364191       20.2939781924        5.9167204658  MEMB      43              0.0000000000
      4738        43  SAPS      C213          -20.6913043307       20.9334941596        7.0492745762  MEMB      43              0.0000000000
      4739        43  SAPS      H13R          -20.8784701216       21.9888995447        7.3415238170  MEMB      43              0.0000000000
      4740        43  SAPS      H13S          -21.1385154537       20.3864267601        7.9066186167  MEMB      43              0.0000000000
      4741        43  SAPS      C214          -21.3613936539       20.6161775938        5.7650608647  MEMB      43              0.0000000000
      4742        43  SAPS      H14R          -21.4490229673       19.5365634057        5.5733467536  MEMB      43              0.0000000000
      4743        43  SAPS      C215          -22.0073343305       21.4357977734        4.8882811909  MEMB      43              0.0000000000
      4744        43  SAPS      H15R          -22.4567406555       21.0002421022        3.9836666466  MEMB      43              0.0000000000
      4745        43  SAPS      C216          -22.2359182707       22.9603757329        4.9703852044  MEMB      43              0.0000000000
      4746        43  SAPS      H16R          -22.6256663977       23.1763769307        5.9881081865  MEMB      43              0.0000000000
      4747        43  SAPS      H16S          -22.9292338613       23.3275044526        4.1837131854  MEMB      43              0.0000000000
      4748        43  SAPS      C217          -20.9116647012       23.7901610119        4.7571324689  MEMB      43              0.0000000000
      4749        43  SAPS      H17R          -20.1107071715       23.6903327841        5.5205603023  MEMB      43              0.0000000000
      4750        43  SAPS      H17S          -21.2625618274       24.8357861320        4.8907746640  MEMB      43              0.0000000000
      4751        43  SAPS      C218          -20.3419229027       23.7215342339        3.3261002341  MEMB      43              0.0000000000
      4752        43  SAPS      H18R          -20.1532048603       22.6346614765        3.1941365114  MEMB      43              0.0000000000
      4753        43  SAPS      H18S          -19.3015294885       24.1100777241        3.2954976319  MEMB      43              0.0000000000
      4754        43  SAPS      C219          -21.1567701160       24.3356981078        2.2047764412  MEMB      43              0.0000000000
      4755        43  SAPS      H19R          -21.2327213082       25.4375433734        2.3251482127  MEMB      43              0.0000000000
      4756        43  SAPS      H19S          -22.2028268756       23.9614619243        2.2105689445  MEMB      43              0.0000000000
      4757        43  SAPS      C220          -20.6638581841       23.9312170330        0.8401791419  MEMB      43              0.0000000000
      4758        43  SAPS      H20R          -20.8052722795       22.8363241011        0.7155479614  MEMB      43              0.0000000000
      4759        43  SAPS      H20S          -19.5873329583       24.1832150444        0.7310385079  MEMB      43              0.0000000000
      4760        43  SAPS      H20T          -21.2063062278       24.4715746154        0.0351413278  MEMB      43              0.0000000000
      4761        43  SAPS      C33           -24.4339557590       18.6106155105       12.1789298895  MEMB      43              0.0000000000
      4762        43  SAPS      H3X           -25.3954766132       18.5430709522       12.7314109742  MEMB      43              0.0000000000
      4763        43  SAPS      H3Y           -23.6260851473       18.0436605813       12.6890558761  MEMB      43              0.0000000000
      4764        43  SAPS      C34           -24.6716496973       18.1913676242       10.7216795704  MEMB      43              0.0000000000
      4765        43  SAPS      H4X           -25.3945382946       18.8080565411       10.1459641407  MEMB      43              0.0000000000
      4766        43  SAPS      H4Y           -25.2531590514       17.2463741587       10.7778542187  MEMB      43              0.0000000000
      4767        43  SAPS      C35           -23.4121557272       18.0831614420        9.7899528732  MEMB      43              0.0000000000
      4768        43  SAPS      H5X           -23.0144680435       19.0909820277        9.5440594486  MEMB      43              0.0000000000
      4769        43  SAPS      H5Y           -23.9147638509       17.6139573819        8.9172819168  MEMB      43              0.0000000000
      4770        43  SAPS      C36           -22.3892126087       17.0893635374       10.2725037124  MEMB      43              0.0000000000
      4771        43  SAPS      H6X           -22.8978015695       16.2719711097       10.8270559342  MEMB      43              0.0000000000
      4772        43  SAPS      H6Y           -21.6752404004       17.5832853794       10.9657606779  MEMB      43              0.0000000000
      4773        43  SAPS      C37           -21.7830645223       16.3837221799        9.0696290077  MEMB      43              0.0000000000
      4774        43  SAPS      H7X           -22.5158448572       16.1912688712        8.2570311540  MEMB      43              0.0000000000
      4775        43  SAPS      H7Y           -21.3281138795       15.4181003567        9.3777131341  MEMB      43              0.0000000000
      4776        43  SAPS      C38           -20.5440949227       17.1273628329        8.4470440994  MEMB      43              0.0000000000
      4777        43  SAPS      H8X           -20.0219723935       17.5514510618        9.3312714379  MEMB      43              0.0000000000
      4778        43  SAPS      H8Y           -20.8236921838       18.0059812001        7.8272241794  MEMB      43              0.0000000000
      4779        43  SAPS      C39           -19.5449693357       16.2427396600        7.7298128609  MEMB      43              0.0000000000
      4780        43  SAPS      H9X           -19.5441412714       15.3389683701        8.3759697274  MEMB      43              0.0000000000
      4781        43  SAPS      H9Y           -18.5528326571       16.7426260863        7.7198420912  MEMB      43              0.0000000000
      4782        43  SAPS      C310          -20.1278540987       15.8417023637        6.3775921656  MEMB      43              0.0000000000
      4783        43  SAPS      H10X          -21.2280060491       15.8598052142        6.5314066393  MEMB      43              0.0000000000
      4784        43  SAPS      H10Y          -19.7031835218       14.8297407693        6.2046478060  MEMB      43              0.0000000000
      4785        43  SAPS      C311          -20.0220950759       16.7767644317        5.1223797328  MEMB      43              0.0000000000
      4786        43  SAPS      H11X          -20.4895630703       17.7307289253        5.4475666926  MEMB      43              0.0000000000
      4787        43  SAPS      H11Y          -20.5851727835       16.3013046415        4.2909940591  MEMB      43              0.0000000000
      4788        43  SAPS      C312          -18.6593661368       17.0664681841        4.7007736199  MEMB      43              0.0000000000
      4789        43  SAPS      H12X          -18.2278311423       16.0560333253        4.5360909402  MEMB      43              0.0000000000
      4790        43  SAPS      H12Y          -18.1731582445       17.5846381228        5.5548356450  MEMB      43              0.0000000000
      4791        43  SAPS      C313          -18.4483350396       17.9281545969        3.4843329062  MEMB      43              0.0000000000
      4792        43  SAPS      H13X          -17.3794993606       18.0394811376        3.2023455526  MEMB      43              0.0000000000
      4793        43  SAPS      H13Y          -18.8806611934       18.9139702182        3.7592567669  MEMB      43              0.0000000000
      4794        43  SAPS      C314          -19.2687090751       17.4477579338        2.2412508729  MEMB      43              0.0000000000
      4795        43  SAPS      H14X          -20.2688742981       17.9307987823        2.2669824102  MEMB      43              0.0000000000
      4796        43  SAPS      H14Y          -19.3348513403       16.3403181860        2.3006080058  MEMB      43              0.0000000000
      4797        43  SAPS      C315          -18.7345566689       17.8851468035        0.7992207097  MEMB      43              0.0000000000
      4798        43  SAPS      H15X          -17.7048552602       17.4803710699        0.6982612930  MEMB      43              0.0000000000
      4799        43  SAPS      H15Y          -18.5970820385       18.9868315203        0.8406019346  MEMB      43              0.0000000000
      4800        43  SAPS      C316          -19.7223115080       17.7115736032       -0.3351817065  MEMB      43              0.0000000000
      4801        43  SAPS      H16X          -20.7342997048       18.0799782600       -0.0622729066  MEMB      43              0.0000000000
      4802        43  SAPS      H16Y          -19.7712700225       16.6415730288       -0.6301780044  MEMB      43              0.0000000000
      4803        43  SAPS      C317          -19.4609025572       18.5194029318       -1.6508564405  MEMB      43              0.0000000000
      4804        43  SAPS      H17X          -18.5677616396       18.0805839706       -2.1448785776  MEMB      43              0.0000000000
      4805        43  SAPS      H17Y          -19.3363429874       19.6098997208       -1.4787444030  MEMB      43              0.0000000000
      4806        43  SAPS      C318          -20.5616227847       18.3412080946       -2.6596646384  MEMB      43              0.0000000000
      4807        43  SAPS      H18X          -21.5083144313       18.7827438597       -2.2813240934  MEMB      43              0.0000000000
      4808        43  SAPS      H18Y          -20.6213109494       17.2338833275       -2.7274148884  MEMB      43              0.0000000000
      4809        43  SAPS      H18Z          -20.3509237525       18.8921890170       -3.6011258007  MEMB      43              0.0000000000
      4810        44  OSM       N              20.9670532880      -17.1430249007       21.0270320246  MEMB      44              0.0000000000
      4811        44  OSM       C15            21.6676461585      -18.4669941571       20.9863798564  MEMB      44              0.0000000000
      4812        44  OSM       H15A           21.5475233650      -18.9182058600       21.9602270762  MEMB      44              0.0000000000
      4813        44  OSM       H15B           22.7163746167      -18.4479750240       20.7290732474  MEMB      44              0.0000000000
      4814        44  OSM       H15C           21.1689768398      -19.0542488718       20.2295041487  MEMB      44              0.0000000000
      4815        44  OSM       C14            20.9254639361      -16.3782098466       19.6764380316  MEMB      44              0.0000000000
      4816        44  OSM       H14A           20.5400601221      -15.3979956136       19.9152768507  MEMB      44              0.0000000000
      4817        44  OSM       H14B           20.2750034568      -16.9757290164       19.0549302917  MEMB      44              0.0000000000
      4818        44  OSM       H14C           21.8569085384      -16.3901472054       19.1299322527  MEMB      44              0.0000000000
      4819        44  OSM       C13            19.4773760139      -17.3911320406       21.4529071176  MEMB      44              0.0000000000
      4820        44  OSM       H13A           18.9681563782      -18.0755664427       20.7906043374  MEMB      44              0.0000000000
      4821        44  OSM       H13B           18.9388141452      -16.4550132346       21.4586298052  MEMB      44              0.0000000000
      4822        44  OSM       H13C           19.4350804514      -17.7446418499       22.4725354582  MEMB      44              0.0000000000
      4823        44  OSM       C12            21.5307364894      -16.2111814362       22.0958285572  MEMB      44              0.0000000000
      4824        44  OSM       H12A           21.2896216748      -16.6348363377       23.0595608921  MEMB      44              0.0000000000
      4825        44  OSM       H12B           20.9860494284      -15.2799804717       22.0450269363  MEMB      44              0.0000000000
      4826        44  OSM       C11            23.0382559247      -15.8796763794       21.9661146664  MEMB      44              0.0000000000
      4827        44  OSM       H11A           23.6102628467      -16.8263712717       22.0705075344  MEMB      44              0.0000000000
      4828        44  OSM       H11B           23.3561347731      -15.3143773160       22.8681740266  MEMB      44              0.0000000000
      4829        44  OSM       P              23.4470034016      -13.6056333483       20.8179590722  MEMB      44              0.0000000000
      4830        44  OSM       O13            22.1835705662      -13.2108089048       21.5234068348  MEMB      44              0.0000000000
      4831        44  OSM       O14            24.6362773894      -13.0661552216       21.4428326437  MEMB      44              0.0000000000
      4832        44  OSM       O11            23.3585887191      -13.1705386183       19.2225059557  MEMB      44              0.0000000000
      4833        44  OSM       O12            23.5615012111      -15.2275374485       20.7885952362  MEMB      44              0.0000000000
      4834        44  OSM       C1S            24.0188295427      -14.0078602107       18.2551444109  MEMB      44              0.0000000000
      4835        44  OSM       H1S            23.6633992773      -15.0348332659       18.4860482102  MEMB      44              0.0000000000
      4836        44  OSM       H1T            25.1257938136      -13.9420026119       18.3230706997  MEMB      44              0.0000000000
      4837        44  OSM       NF             23.9576177613      -14.6202246705       16.0023401106  MEMB      44              0.0000000000
      4838        44  OSM       HNF            24.6173705851      -14.4351275566       15.2781342379  MEMB      44              0.0000000000
      4839        44  OSM       C2S            23.5404687147      -13.5677143959       16.7981498790  MEMB      44              0.0000000000
      4840        44  OSM       H2S            22.4298445256      -13.5838593280       16.7741841858  MEMB      44              0.0000000000
      4841        44  OSM       C3S            24.1977828185      -12.2578093991       16.4741745616  MEMB      44              0.0000000000
      4842        44  OSM       H3S            25.2859144187      -12.4042342911       16.6440280984  MEMB      44              0.0000000000
      4843        44  OSM       O3             23.8264698208      -11.1559722977       17.2520381949  MEMB      44              0.0000000000
      4844        44  OSM       HO3            23.3084303693      -11.6030170681       17.9253775743  MEMB      44              0.0000000000
      4845        44  OSM       C4S            23.8289193285      -11.9882944575       15.0777065516  MEMB      44              0.0000000000
      4846        44  OSM       H4S            22.8140396574      -11.5835920296       14.9502903952  MEMB      44              0.0000000000
      4847        44  OSM       C5S            24.6422866532      -11.9218558566       14.0168156993  MEMB      44              0.0000000000
      4848        44  OSM       H5S            25.7297840818      -11.9702636578       14.1749476207  MEMB      44              0.0000000000
      4849        44  OSM       C6S            24.1934179267      -11.6177905710       12.6625165687  MEMB      44              0.0000000000
      4850        44  OSM       H6S            25.0422040520      -11.1574292443       12.1130171918  MEMB      44              0.0000000000
      4851        44  OSM       H6T            23.4286398128      -10.8124752670       12.6324686175  MEMB      44              0.0000000000
      4852        44  OSM       C7S            23.7078602142      -12.8832377777       11.8832962773  MEMB      44              0.0000000000
      4853        44  OSM       H7S            23.2244625064      -13.5391699783       12.6385449095  MEMB      44              0.0000000000
      4854        44  OSM       H7T            24.5943167308      -13.4012495962       11.4588204993  MEMB      44              0.0000000000
      4855        44  OSM       C8S            22.7177057450      -12.4692500436       10.7810361268  MEMB      44              0.0000000000
      4856        44  OSM       H8S            23.2212489644      -11.7852595036       10.0648494998  MEMB      44              0.0000000000
      4857        44  OSM       H8T            21.9022672482      -11.9271446752       11.3059187833  MEMB      44              0.0000000000
      4858        44  OSM       C9S            22.1139079599      -13.6341081484        9.9388081779  MEMB      44              0.0000000000
      4859        44  OSM       H9S            21.8020970251      -14.4235230505       10.6556898884  MEMB      44              0.0000000000
      4860        44  OSM       H9T            22.9381722779      -14.0898012685        9.3495266994  MEMB      44              0.0000000000
      4861        44  OSM       C10S           20.8719392494      -13.2456978341        9.1915615070  MEMB      44              0.0000000000
      4862        44  OSM       H10S           20.9940205762      -12.2378233548        8.7403343948  MEMB      44              0.0000000000
      4863        44  OSM       H10T           20.0882335911      -13.2026333282        9.9778645606  MEMB      44              0.0000000000
      4864        44  OSM       C11S           20.3807029644      -14.1885746841        8.1262760242  MEMB      44              0.0000000000
      4865        44  OSM       H11S           19.2902822533      -14.3714979560        8.2351008010  MEMB      44              0.0000000000
      4866        44  OSM       H11T           20.6669228825      -15.2397513383        8.3440539054  MEMB      44              0.0000000000
      4867        44  OSM       C12S           20.5429890552      -13.7630373122        6.6974119364  MEMB      44              0.0000000000
      4868        44  OSM       H12S           21.6330771780      -13.6280043378        6.5306939670  MEMB      44              0.0000000000
      4869        44  OSM       H12T           20.1652940965      -12.7185310283        6.6714541589  MEMB      44              0.0000000000
      4870        44  OSM       C13S           19.6949989097      -14.5775968230        5.6706042159  MEMB      44              0.0000000000
      4871        44  OSM       H13S           18.6909023776      -14.7657193977        6.1073208172  MEMB      44              0.0000000000
      4872        44  OSM       H13T           20.0586609268      -15.5419242670        5.2557029855  MEMB      44              0.0000000000
      4873        44  OSM       C14S           19.2731172346      -13.6867064442        4.4573771656  MEMB      44              0.0000000000
      4874        44  OSM       H14S           18.5505252071      -12.9222243244        4.8147979161  MEMB      44              0.0000000000
      4875        44  OSM       H14T           18.6092229480      -14.2170061596        3.7415926907  MEMB      44              0.0000000000
      4876        44  OSM       C15S           20.3757179655      -12.8497944559        3.7641914297  MEMB      44              0.0000000000
      4877        44  OSM       H15S           20.8829956996      -12.2758976074        4.5689475380  MEMB      44              0.0000000000
      4878        44  OSM       H15T           19.9611532872      -12.1809478772        2.9799076496  MEMB      44              0.0000000000
      4879        44  OSM       C16S           21.4087462942      -13.7401288108        3.0290338300  MEMB      44              0.0000000000
      4880        44  OSM       H16S           20.7816826496      -14.3270546170        2.3243134899  MEMB      44              0.0000000000
      4881        44  OSM       H16T           21.9782703801      -14.4424783292        3.6745310528  MEMB      44              0.0000000000
      4882        44  OSM       C17S           22.4601958045      -12.9883548458        2.2380274523  MEMB      44              0.0000000000
      4883        44  OSM       H17S           21.8248227351      -12.5044259163        1.4657357492  MEMB      44              0.0000000000
      4884        44  OSM       H17T           23.1578751176      -13.6991911747        1.7458121159  MEMB      44              0.0000000000
      4885        44  OSM       C18S           23.4781491944      -11.9973908078        2.9816943545  MEMB      44              0.0000000000
      4886        44  OSM       H18S           24.3451963210      -11.7392396374        2.3367839389  MEMB      44              0.0000000000
      4887        44  OSM       H18T           23.8687798043      -12.5903483729        3.8361698814  MEMB      44              0.0000000000
      4888        44  OSM       H18U           22.8489898922      -11.2135959407        3.4551350758  MEMB      44              0.0000000000
      4889        44  OSM       C1F            23.5302465364      -15.9149906414       15.9280179937  MEMB      44              0.0000000000
      4890        44  OSM       OF             22.5249193894      -16.2911316861       16.5039879413  MEMB      44              0.0000000000
      4891        44  OSM       C2F            24.1364425261      -16.6634531050       14.7705464031  MEMB      44              0.0000000000
      4892        44  OSM       H2F            24.1837743490      -16.0009855765       13.8799185410  MEMB      44              0.0000000000
      4893        44  OSM       H2G            23.3802810899      -17.4275634134       14.4900532031  MEMB      44              0.0000000000
      4894        44  OSM       C3F            25.3461149361      -17.4955047190       15.1964399528  MEMB      44              0.0000000000
      4895        44  OSM       H3F            25.3215182609      -18.3298805780       14.4632737714  MEMB      44              0.0000000000
      4896        44  OSM       H3G            25.2921448188      -17.8376459934       16.2520665895  MEMB      44              0.0000000000
      4897        44  OSM       C4F            26.6992764617      -16.8852114776       15.0216656531  MEMB      44              0.0000000000
      4898        44  OSM       H4F            27.4547349917      -17.6959653712       15.1009265316  MEMB      44              0.0000000000
      4899        44  OSM       H4G            26.8544967869      -16.0348777547       15.7196339986  MEMB      44              0.0000000000
      4900        44  OSM       C5F            26.8630359088      -16.3479488258       13.5623244488  MEMB      44              0.0000000000
      4901        44  OSM       H5F            27.8242628602      -15.7927538023       13.5162577215  MEMB      44              0.0000000000
      4902        44  OSM       H5G            26.0674995047      -15.5775569197       13.4732228869  MEMB      44              0.0000000000
      4903        44  OSM       C6F            26.8286859430      -17.3259116254       12.3746080722  MEMB      44              0.0000000000
      4904        44  OSM       H6F            25.9332973844      -17.9829333797       12.4049849333  MEMB      44              0.0000000000
      4905        44  OSM       H6G            27.6329904298      -18.0764280102       12.5299817916  MEMB      44              0.0000000000
      4906        44  OSM       C7F            27.0138803035      -16.6249053061       11.0343489065  MEMB      44              0.0000000000
      4907        44  OSM       H7F            27.1365390825      -17.3969839973       10.2449374592  MEMB      44              0.0000000000
      4908        44  OSM       H7G            27.9021454015      -15.9586226044       10.9972846904  MEMB      44              0.0000000000
      4909        44  OSM       C8F            25.8271711403      -15.7759815066       10.5485431528  MEMB      44              0.0000000000
      4910        44  OSM       H8F            26.0750509939      -15.3440406181        9.5554148776  MEMB      44              0.0000000000
      4911        44  OSM       H8G            25.7774595696      -14.9773893828       11.3193219962  MEMB      44              0.0000000000
      4912        44  OSM       C9F            24.4609729089      -16.4494617966       10.5024282626  MEMB      44              0.0000000000
      4913        44  OSM       H9F            24.0568901906      -16.7130505395       11.4909821128  MEMB      44              0.0000000000
      4914        44  OSM       C10F           23.7202506891      -16.6697882156        9.3777201208  MEMB      44              0.0000000000
      4915        44  OSM       H10F           22.7109813998      -17.1069618910        9.3936771643  MEMB      44              0.0000000000
      4916        44  OSM       C11F           24.1139465775      -16.3134946040        7.9369458140  MEMB      44              0.0000000000
      4917        44  OSM       H11F           25.0821976579      -15.7856569358        7.8020451087  MEMB      44              0.0000000000
      4918        44  OSM       H11G           23.3818458593      -15.6009025458        7.5004123005  MEMB      44              0.0000000000
      4919        44  OSM       C12F           23.8977649111      -17.5540511602        7.0306731247  MEMB      44              0.0000000000
      4920        44  OSM       H12F           22.9917077976      -18.1711886975        7.2110134420  MEMB      44              0.0000000000
      4921        44  OSM       H12G           24.6824171809      -18.3089327013        7.2515715954  MEMB      44              0.0000000000
      4922        44  OSM       C13F           23.9812053746      -17.2224060813        5.5371864368  MEMB      44              0.0000000000
      4923        44  OSM       H13F           24.8943376363      -16.6010097605        5.4172812235  MEMB      44              0.0000000000
      4924        44  OSM       H13G           23.1121818450      -16.6049855585        5.2242790927  MEMB      44              0.0000000000
      4925        44  OSM       C14F           24.0128197648      -18.4616621351        4.6746312708  MEMB      44              0.0000000000
      4926        44  OSM       H14F           23.2576872409      -19.1536956319        5.1049647441  MEMB      44              0.0000000000
      4927        44  OSM       H14G           24.9415774598      -19.0484516394        4.8401864852  MEMB      44              0.0000000000
      4928        44  OSM       C15F           23.8305310804      -18.1611933627        3.1730194723  MEMB      44              0.0000000000
      4929        44  OSM       H15F           23.1752842464      -17.3152350078        2.8741430469  MEMB      44              0.0000000000
      4930        44  OSM       H15G           23.4190979390      -19.1099965190        2.7670449288  MEMB      44              0.0000000000
      4931        44  OSM       C16F           25.2346053687      -17.9980829143        2.5114967436  MEMB      44              0.0000000000
      4932        44  OSM       H16F           25.1104566769      -18.0530459444        1.4088244494  MEMB      44              0.0000000000
      4933        44  OSM       H16G           25.9558093692      -18.8205993177        2.7055396575  MEMB      44              0.0000000000
      4934        44  OSM       C17F           25.8002110210      -16.5673129723        2.6752904010  MEMB      44              0.0000000000
      4935        44  OSM       H17F           25.9535725459      -16.3244770978        3.7485250055  MEMB      44              0.0000000000
      4936        44  OSM       H17G           24.9817900942      -15.9584491364        2.2350711382  MEMB      44              0.0000000000
      4937        44  OSM       C18F           27.0604547542      -16.2559162923        1.8865138964  MEMB      44              0.0000000000
      4938        44  OSM       H18F           27.3747539392      -15.2010456112        2.0374631301  MEMB      44              0.0000000000
      4939        44  OSM       H18G           27.0585116772      -16.3877013237        0.7833604929  MEMB      44              0.0000000000
      4940        44  OSM       H18H           27.8741183001      -16.8358185547        2.3722979407  MEMB      44              0.0000000000
      4941        45  SLPC      N             -19.5632260613      -21.3228229009       17.7111365865  MEMB      45              0.0000000000
      4942        45  SLPC      C13           -18.6082338485      -21.2661299311       18.8535296263  MEMB      45              0.0000000000
      4943        45  SLPC      H13A          -18.9840244621      -20.6963364317       19.6904983181  MEMB      45              0.0000000000
      4944        45  SLPC      H13B          -18.4197667996      -22.3010624370       19.0980593541  MEMB      45              0.0000000000
      4945        45  SLPC      H13C          -17.6490504790      -20.8636869313       18.5630007993  MEMB      45              0.0000000000
      4946        45  SLPC      C14           -19.7803747990      -19.8885624132       17.2443956022  MEMB      45              0.0000000000
      4947        45  SLPC      H14A          -18.8362555803      -19.4781432003       16.9179069551  MEMB      45              0.0000000000
      4948        45  SLPC      H14B          -20.5799634633      -19.8965684260       16.5184520065  MEMB      45              0.0000000000
      4949        45  SLPC      H14C          -20.0736315497      -19.4060958295       18.1650618675  MEMB      45              0.0000000000
      4950        45  SLPC      C15           -20.9146460238      -22.0264613182       18.1126079238  MEMB      45              0.0000000000
      4951        45  SLPC      H15A          -21.6152838095      -21.9315538799       17.2962139906  MEMB      45              0.0000000000
      4952        45  SLPC      H15B          -20.6427690989      -23.0216737063       18.4320375734  MEMB      45              0.0000000000
      4953        45  SLPC      H15C          -21.3519025097      -21.3692881059       18.8497173254  MEMB      45              0.0000000000
      4954        45  SLPC      C12           -19.0089570619      -22.1997271596       16.6223872821  MEMB      45              0.0000000000
      4955        45  SLPC      H12A          -19.7421960435      -22.6430161325       15.9649257166  MEMB      45              0.0000000000
      4956        45  SLPC      H12B          -18.5077722399      -23.0315783590       17.0948673460  MEMB      45              0.0000000000
      4957        45  SLPC      C11           -17.9364532809      -21.5611756398       15.7005939170  MEMB      45              0.0000000000
      4958        45  SLPC      H11A          -18.4753894058      -20.8881207243       14.9999757959  MEMB      45              0.0000000000
      4959        45  SLPC      H11B          -17.5246250450      -22.3916617657       15.0882123712  MEMB      45              0.0000000000
      4960        45  SLPC      P             -15.5687819793      -21.5864268732       16.6038179359  MEMB      45              0.0000000000
      4961        45  SLPC      O13           -14.7238973065      -20.6298552167       17.4029677217  MEMB      45              0.0000000000
      4962        45  SLPC      O14           -15.8132500132      -22.9543555613       17.2480565206  MEMB      45              0.0000000000
      4963        45  SLPC      O12           -16.9534586724      -20.8441446257       16.3933273988  MEMB      45              0.0000000000
      4964        45  SLPC      O11           -14.9168121538      -21.7160455583       15.1071794803  MEMB      45              0.0000000000
      4965        45  SLPC      C1            -13.8395140814      -20.8566708466       14.7081133885  MEMB      45              0.0000000000
      4966        45  SLPC      HA            -13.6195213432      -20.0173979094       15.4020480923  MEMB      45              0.0000000000
      4967        45  SLPC      HB            -12.8616872791      -21.3838654322       14.6925718383  MEMB      45              0.0000000000
      4968        45  SLPC      C2            -14.0761646211      -20.3242410595       13.2848101068  MEMB      45              0.0000000000
      4969        45  SLPC      HS            -13.5134572018      -19.3915154596       13.0663972034  MEMB      45              0.0000000000
      4970        45  SLPC      O21           -15.5191680480      -19.9484505969       13.0770833952  MEMB      45              0.0000000000
      4971        45  SLPC      C21           -16.0135324631      -18.8534399130       13.5285962742  MEMB      45              0.0000000000
      4972        45  SLPC      O22           -15.3848484720      -18.0995481518       14.3152373106  MEMB      45              0.0000000000
      4973        45  SLPC      C22           -17.4427997437      -18.7726208069       13.2204253721  MEMB      45              0.0000000000
      4974        45  SLPC      H2R           -17.8006937851      -19.7844537176       12.9333242367  MEMB      45              0.0000000000
      4975        45  SLPC      H2S           -18.0704168667      -18.6911914376       14.1335448948  MEMB      45              0.0000000000
      4976        45  SLPC      C3            -13.7173702056      -21.3692359668       12.1552019342  MEMB      45              0.0000000000
      4977        45  SLPC      HX            -12.7097961540      -21.7398024104       12.4412023766  MEMB      45              0.0000000000
      4978        45  SLPC      HY            -13.7198577582      -20.9337012723       11.1331334329  MEMB      45              0.0000000000
      4979        45  SLPC      O31           -14.6389365790      -22.4322868398       12.1842023542  MEMB      45              0.0000000000
      4980        45  SLPC      C31           -14.4225365356      -23.3135109325       11.1797500630  MEMB      45              0.0000000000
      4981        45  SLPC      O32           -13.4298156292      -23.2813305600       10.4654419122  MEMB      45              0.0000000000
      4982        45  SLPC      C32           -15.5377776412      -24.3355738859       11.1273602632  MEMB      45              0.0000000000
      4983        45  SLPC      H2X           -16.4466699277      -23.8145568235       10.7575265138  MEMB      45              0.0000000000
      4984        45  SLPC      H2Y           -15.6248116477      -24.7981053075       12.1337450551  MEMB      45              0.0000000000
      4985        45  SLPC      C23           -17.5953922683      -17.5809920669       12.2213457380  MEMB      45              0.0000000000
      4986        45  SLPC      H3R           -17.0375942106      -17.6751421361       11.2651458058  MEMB      45              0.0000000000
      4987        45  SLPC      H3S           -17.1465462447      -16.6183065958       12.5470676103  MEMB      45              0.0000000000
      4988        45  SLPC      C24           -19.1070851271      -17.3271754758       12.0257534989  MEMB      45              0.0000000000
      4989        45  SLPC      H4R           -19.3107468921      -16.2898942017       11.6838611019  MEMB      45              0.0000000000
      4990        45  SLPC      H4S           -19.6384612343      -17.3746466633       13.0002825330  MEMB      45              0.0000000000
      4991        45  SLPC      C25           -19.8532026590      -18.3431138148       11.1294977810  MEMB      45              0.0000000000
      4992        45  SLPC      H5R           -20.9154066505      -18.0442852505       11.0000940309  MEMB      45              0.0000000000
      4993        45  SLPC      H5S           -19.9557116188      -19.3314752604       11.6264432854  MEMB      45              0.0000000000
      4994        45  SLPC      C26           -19.3453020399      -18.4572660746        9.6965348635  MEMB      45              0.0000000000
      4995        45  SLPC      H6R           -18.4626682131      -19.1297751564        9.7514017605  MEMB      45              0.0000000000
      4996        45  SLPC      H6S           -18.9577957514      -17.4464175628        9.4468454011  MEMB      45              0.0000000000
      4997        45  SLPC      C27           -20.3754480919      -18.9524915340        8.6339110767  MEMB      45              0.0000000000
      4998        45  SLPC      H7R           -21.1029415626      -18.1167031947        8.5530904531  MEMB      45              0.0000000000
      4999        45  SLPC      H7S           -20.9393362667      -19.8603075930        8.9375905803  MEMB      45              0.0000000000
      5000        45  SLPC      C28           -19.7992119380      -19.3088192013        7.3100805588  MEMB      45              0.0000000000
      5001        45  SLPC      H8R           -20.5988532549      -19.8993569883        6.8139349366  MEMB      45              0.0000000000
      5002        45  SLPC      H8S           -19.0476027229      -20.1056195309        7.4958592483  MEMB      45              0.0000000000
      5003        45  SLPC      C29           -19.1600474861      -18.2463594451        6.5468142805  MEMB      45              0.0000000000
      5004        45  SLPC      H9R           -18.4559934625      -17.6775545943        7.1719290885  MEMB      45              0.0000000000
      5005        45  SLPC      C210          -19.3684227016      -17.8347732409        5.2886724087  MEMB      45              0.0000000000
      5006        45  SLPC      H10R          -18.7193868066      -17.1023034754        4.7864367302  MEMB      45              0.0000000000
      5007        45  SLPC      C211          -20.3343158971      -18.5009299234        4.3543367044  MEMB      45              0.0000000000
      5008        45  SLPC      H11R          -21.3578675518      -18.5338234508        4.7851278093  MEMB      45              0.0000000000
      5009        45  SLPC      H11S          -20.0476921004      -19.5640573213        4.2062550092  MEMB      45              0.0000000000
      5010        45  SLPC      C212          -20.4944837984      -17.8723535182        3.0477656193  MEMB      45              0.0000000000
      5011        45  SLPC      H12R          -21.5030074727      -17.4350373531        3.0073363477  MEMB      45              0.0000000000
      5012        45  SLPC      C213          -19.6916955210      -18.0333982234        1.9357052171  MEMB      45              0.0000000000
      5013        45  SLPC      H13R          -20.0038078846      -17.5887632473        0.9792093655  MEMB      45              0.0000000000
      5014        45  SLPC      C214          -18.4481961022      -18.9104119321        1.8909666490  MEMB      45              0.0000000000
      5015        45  SLPC      H14R          -18.6504607380      -19.7671496649        1.2131683878  MEMB      45              0.0000000000
      5016        45  SLPC      H14S          -18.2720174402      -19.2886154260        2.9206491351  MEMB      45              0.0000000000
      5017        45  SLPC      C215          -17.1615762824      -18.1501085882        1.5360314898  MEMB      45              0.0000000000
      5018        45  SLPC      H15R          -17.4000837985      -17.2965266991        0.8660814627  MEMB      45              0.0000000000
      5019        45  SLPC      H15S          -16.4114878289      -18.8033615636        1.0411083467  MEMB      45              0.0000000000
      5020        45  SLPC      C216          -16.5365986389      -17.3846893912        2.7502759068  MEMB      45              0.0000000000
      5021        45  SLPC      H16R          -16.0513635020      -18.1747886972        3.3623303870  MEMB      45              0.0000000000
      5022        45  SLPC      H16S          -17.3584684705      -16.7515798823        3.1477976551  MEMB      45              0.0000000000
      5023        45  SLPC      C217          -15.3505765565      -16.3704378411        2.4658317013  MEMB      45              0.0000000000
      5024        45  SLPC      H17R          -15.0423881675      -15.9786830956        3.4587409212  MEMB      45              0.0000000000
      5025        45  SLPC      H17S          -15.7159916985      -15.5416988445        1.8224154576  MEMB      45              0.0000000000
      5026        45  SLPC      C218          -14.0577196641      -16.9610559007        1.9016363484  MEMB      45              0.0000000000
      5027        45  SLPC      H18R          -14.2194934484      -17.1488014806        0.8186316658  MEMB      45              0.0000000000
      5028        45  SLPC      H18S          -13.7955669089      -17.8865829731        2.4575115353  MEMB      45              0.0000000000
      5029        45  SLPC      H18T          -13.1425951206      -16.3565148262        2.0788319056  MEMB      45              0.0000000000
      5030        45  SLPC      C33           -15.0236234264      -25.3748821986       10.1130375216  MEMB      45              0.0000000000
      5031        45  SLPC      H3X           -15.8525542407      -26.1131349863       10.0663762160  MEMB      45              0.0000000000
      5032        45  SLPC      H3Y           -14.1865320883      -25.9558064837       10.5558989153  MEMB      45              0.0000000000
      5033        45  SLPC      C34           -14.8889325547      -25.0518074463        8.5623289547  MEMB      45              0.0000000000
      5034        45  SLPC      H4X           -14.8158207218      -25.9505843791        7.9133484623  MEMB      45              0.0000000000
      5035        45  SLPC      H4Y           -13.9270617042      -24.5240885634        8.3872915582  MEMB      45              0.0000000000
      5036        45  SLPC      C35           -16.1001682778      -24.3003163163        7.9977397145  MEMB      45              0.0000000000
      5037        45  SLPC      H5X           -15.7001518676      -24.1849127952        6.9676962110  MEMB      45              0.0000000000
      5038        45  SLPC      H5Y           -16.1709059227      -23.2868862629        8.4474922597  MEMB      45              0.0000000000
      5039        45  SLPC      C36           -17.4198452617      -24.9330823834        8.0504274138  MEMB      45              0.0000000000
      5040        45  SLPC      H6X           -18.0552563997      -24.5825863592        8.8916921291  MEMB      45              0.0000000000
      5041        45  SLPC      H6Y           -17.2676521656      -26.0334400364        8.0311714789  MEMB      45              0.0000000000
      5042        45  SLPC      C37           -18.3521407916      -24.7880077865        6.8514392974  MEMB      45              0.0000000000
      5043        45  SLPC      H7X           -19.2582760380      -25.4306797735        6.8660175749  MEMB      45              0.0000000000
      5044        45  SLPC      H7Y           -17.7686371480      -25.2333891556        6.0174850792  MEMB      45              0.0000000000
      5045        45  SLPC      C38           -18.8597343120      -23.3801996828        6.5126791789  MEMB      45              0.0000000000
      5046        45  SLPC      H8X           -18.0863897492      -22.6132555952        6.7318959933  MEMB      45              0.0000000000
      5047        45  SLPC      H8Y           -19.7756698948      -23.2065139758        7.1170104058  MEMB      45              0.0000000000
      5048        45  SLPC      C39           -19.1102069547      -23.0875301986        5.0563181484  MEMB      45              0.0000000000
      5049        45  SLPC      H9X           -19.7737638783      -22.1975496789        5.1004541143  MEMB      45              0.0000000000
      5050        45  SLPC      H9Y           -19.6734917470      -23.9534840570        4.6474722442  MEMB      45              0.0000000000
      5051        45  SLPC      C310          -17.8600293352      -22.8805580475        4.1630995858  MEMB      45              0.0000000000
      5052        45  SLPC      H10X          -17.2021974929      -23.7752189364        4.1290401870  MEMB      45              0.0000000000
      5053        45  SLPC      H10Y          -17.2310807262      -22.0401703293        4.5270962330  MEMB      45              0.0000000000
      5054        45  SLPC      C311          -18.3068418805      -22.7169336287        2.6288733019  MEMB      45              0.0000000000
      5055        45  SLPC      H11X          -18.2683019197      -21.6446087728        2.3408541274  MEMB      45              0.0000000000
      5056        45  SLPC      H11Y          -19.3828236752      -22.9903463742        2.6716497488  MEMB      45              0.0000000000
      5057        45  SLPC      C312          -17.8047985796      -23.6342881667        1.4706776660  MEMB      45              0.0000000000
      5058        45  SLPC      H12X          -18.3952208526      -23.3991852752        0.5593879056  MEMB      45              0.0000000000
      5059        45  SLPC      H12Y          -17.8443233860      -24.6991103761        1.7851819378  MEMB      45              0.0000000000
      5060        45  SLPC      C313          -16.3583368124      -23.2555885433        1.0671119233  MEMB      45              0.0000000000
      5061        45  SLPC      H13X          -15.6803623365      -23.5190504715        1.9069088362  MEMB      45              0.0000000000
      5062        45  SLPC      H13Y          -16.3435577593      -22.1478315525        0.9835818413  MEMB      45              0.0000000000
      5063        45  SLPC      C314          -15.7494242244      -23.9634492216       -0.1100362830  MEMB      45              0.0000000000
      5064        45  SLPC      H14X          -15.9480618555      -25.0470831745        0.0334964280  MEMB      45              0.0000000000
      5065        45  SLPC      H14Y          -14.6434152264      -23.8773185403       -0.0496503929  MEMB      45              0.0000000000
      5066        45  SLPC      C315          -16.2571232579      -23.5996800313       -1.4590885868  MEMB      45              0.0000000000
      5067        45  SLPC      H15X          -17.3512778339      -23.7919333534       -1.4454683136  MEMB      45              0.0000000000
      5068        45  SLPC      H15Y          -15.7772789667      -24.2001514345       -2.2612747900  MEMB      45              0.0000000000
      5069        45  SLPC      C316          -16.0009298161      -22.1904715850       -1.9444595697  MEMB      45              0.0000000000
      5070        45  SLPC      H16X          -16.5537462676      -21.4251989474       -1.3587349984  MEMB      45              0.0000000000
      5071        45  SLPC      H16Y          -16.3737319501      -22.1582308087       -2.9905474060  MEMB      45              0.0000000000
      5072        45  SLPC      C317          -14.5290623576      -21.7302891538       -1.9521745873  MEMB      45              0.0000000000
      5073        45  SLPC      H17X          -14.2087714565      -21.5639593190       -0.9014275625  MEMB      45              0.0000000000
      5074        45  SLPC      H17Y          -14.3785772501      -20.7654510531       -2.4820449635  MEMB      45              0.0000000000
      5075        45  SLPC      C318          -13.4297929362      -22.6793896256       -2.6306956264  MEMB      45              0.0000000000
      5076        45  SLPC      H18X          -12.9116387539      -22.1748778509       -3.4740852125  MEMB      45              0.0000000000
      5077        45  SLPC      H18Y          -13.8508661859      -23.6753658169       -2.8857448970  MEMB      45              0.0000000000
      5078        45  SLPC      H18Z          -12.5825094074      -22.8017078127       -1.9225512228  MEMB      45              0.0000000000
      5079        46  OSM       N              -9.9291710121      -24.0297560458       20.6704534498  MEMB      46              0.0000000000
      5080        46  OSM       C15           -11.3500614009      -23.6348852506       20.7778443141  MEMB      46              0.0000000000
      5081        46  OSM       H15A          -12.0090725175      -24.2498659275       20.1829467347  MEMB      46              0.0000000000
      5082        46  OSM       H15B          -11.4951963287      -22.6223001173       20.4314239385  MEMB      46              0.0000000000
      5083        46  OSM       H15C          -11.6303099610      -23.6466071450       21.8207841072  MEMB      46              0.0000000000
      5084        46  OSM       C14            -9.4390051793      -23.8557622549       19.2599680886  MEMB      46              0.0000000000
      5085        46  OSM       H14A           -9.8057158259      -24.6664074673       18.6477769850  MEMB      46              0.0000000000
      5086        46  OSM       H14B           -8.3831874235      -24.0762010889       19.3152437886  MEMB      46              0.0000000000
      5087        46  OSM       H14C           -9.7572931902      -22.8947836348       18.8836531284  MEMB      46              0.0000000000
      5088        46  OSM       C13            -9.0691322605      -23.0832329663       21.5242392650  MEMB      46              0.0000000000
      5089        46  OSM       H13A           -9.1948866702      -23.1700754179       22.5933717720  MEMB      46              0.0000000000
      5090        46  OSM       H13B           -9.1747347240      -22.0381459318       21.2731589909  MEMB      46              0.0000000000
      5091        46  OSM       H13C           -8.0407818385      -23.2578792635       21.2442497158  MEMB      46              0.0000000000
      5092        46  OSM       C12            -9.6989564111      -25.4753477138       21.0966442613  MEMB      46              0.0000000000
      5093        46  OSM       H12A          -10.0373133921      -25.5818261626       22.1167309473  MEMB      46              0.0000000000
      5094        46  OSM       H12B           -8.6293963684      -25.6220941459       21.1267570396  MEMB      46              0.0000000000
      5095        46  OSM       C11           -10.3043310356      -26.6872417679       20.3315485048  MEMB      46              0.0000000000
      5096        46  OSM       H11A           -9.8092518743      -27.6065087874       20.7112404409  MEMB      46              0.0000000000
      5097        46  OSM       H11B          -10.0770816295      -26.6464081564       19.2448051013  MEMB      46              0.0000000000
      5098        46  OSM       P             -12.5565433625      -27.4634374798       21.5449020837  MEMB      46              0.0000000000
      5099        46  OSM       O13           -11.9597873205      -28.7938726886       21.7978046915  MEMB      46              0.0000000000
      5100        46  OSM       O14           -12.8056159364      -26.6239990137       22.6720714505  MEMB      46              0.0000000000
      5101        46  OSM       O11           -13.9610086539      -27.6925675697       20.8141494197  MEMB      46              0.0000000000
      5102        46  OSM       O12           -11.7425193275      -26.6515898491       20.5103745024  MEMB      46              0.0000000000
      5103        46  OSM       C1S           -14.2729816319      -27.1222094626       19.5269130567  MEMB      46              0.0000000000
      5104        46  OSM       H1S           -14.3201509907      -26.0133798613       19.5778355921  MEMB      46              0.0000000000
      5105        46  OSM       H1T           -15.3463583971      -27.2788734018       19.2868309630  MEMB      46              0.0000000000
      5106        46  OSM       NF            -13.2986858240      -26.7910476596       17.1988506915  MEMB      46              0.0000000000
      5107        46  OSM       HNF           -13.8101296628      -27.1386242878       16.4167863917  MEMB      46              0.0000000000
      5108        46  OSM       C2S           -13.4303844470      -27.6517297266       18.3366264020  MEMB      46              0.0000000000
      5109        46  OSM       H2S           -12.3645408954      -27.9076840066       18.5176954177  MEMB      46              0.0000000000
      5110        46  OSM       C3S           -14.0732802689      -28.8709257690       17.8931994270  MEMB      46              0.0000000000
      5111        46  OSM       H3S           -15.1519157069      -28.6665633023       17.7226061424  MEMB      46              0.0000000000
      5112        46  OSM       O3            -13.9832478187      -29.8398459872       18.9017235181  MEMB      46              0.0000000000
      5113        46  OSM       HO3           -13.9049853824      -29.3361266759       19.7151985167  MEMB      46              0.0000000000
      5114        46  OSM       C4S           -13.3843395966      -29.4721945813       16.6450844199  MEMB      46              0.0000000000
      5115        46  OSM       H4S           -12.3942700850      -29.9252098647       16.8017359144  MEMB      46              0.0000000000
      5116        46  OSM       C5S           -13.9493111997      -29.4111914625       15.3982455977  MEMB      46              0.0000000000
      5117        46  OSM       H5S           -14.9434391152      -28.9785760912       15.2123591226  MEMB      46              0.0000000000
      5118        46  OSM       C6S           -13.2470746076      -29.9680903868       14.1691285154  MEMB      46              0.0000000000
      5119        46  OSM       H6S           -13.8741060170      -30.8076259059       13.7998956078  MEMB      46              0.0000000000
      5120        46  OSM       H6T           -12.3348240554      -30.5259745620       14.4706001655  MEMB      46              0.0000000000
      5121        46  OSM       C7S           -13.0509115273      -29.1489396293       12.9123576352  MEMB      46              0.0000000000
      5122        46  OSM       H7S           -14.0104909364      -28.6008721006       12.7976828672  MEMB      46              0.0000000000
      5123        46  OSM       H7T           -12.8809425378      -29.8795521538       12.0928227117  MEMB      46              0.0000000000
      5124        46  OSM       C8S           -11.8931154463      -28.1208963187       12.9654746664  MEMB      46              0.0000000000
      5125        46  OSM       H8S           -10.9015812725      -28.5865392525       13.1508331230  MEMB      46              0.0000000000
      5126        46  OSM       H8T           -12.1340673977      -27.4378099963       13.8078854714  MEMB      46              0.0000000000
      5127        46  OSM       C9S           -11.9052813112      -27.3637085292       11.6632636529  MEMB      46              0.0000000000
      5128        46  OSM       H9S           -11.8122079666      -28.0845407909       10.8229897006  MEMB      46              0.0000000000
      5129        46  OSM       H9T           -10.9874740870      -26.7390892800       11.7057099622  MEMB      46              0.0000000000
      5130        46  OSM       C10S          -13.0894580637      -26.4320564717       11.4175403312  MEMB      46              0.0000000000
      5131        46  OSM       H10S          -13.1506345596      -25.6581311047       12.2122838559  MEMB      46              0.0000000000
      5132        46  OSM       H10T          -13.9824107526      -27.0845911499       11.5231582816  MEMB      46              0.0000000000
      5133        46  OSM       C11S          -12.9340842796      -25.7709317156       10.0363363465  MEMB      46              0.0000000000
      5134        46  OSM       H11S          -11.9535708354      -26.0375751904        9.5870982384  MEMB      46              0.0000000000
      5135        46  OSM       H11T          -12.9539413216      -24.6697555356       10.1824101743  MEMB      46              0.0000000000
      5136        46  OSM       C12S          -13.9450211718      -26.2841680845        8.9763739189  MEMB      46              0.0000000000
      5137        46  OSM       H12S          -14.8501403548      -25.6860005017        9.2156973514  MEMB      46              0.0000000000
      5138        46  OSM       H12T          -14.0807224041      -27.3840859151        9.0543904262  MEMB      46              0.0000000000
      5139        46  OSM       C13S          -13.4997387894      -25.9920649711        7.5881650259  MEMB      46              0.0000000000
      5140        46  OSM       H13S          -12.5603232255      -26.4155373770        7.1728449933  MEMB      46              0.0000000000
      5141        46  OSM       H13T          -13.4024352443      -24.9053996090        7.3783759999  MEMB      46              0.0000000000
      5142        46  OSM       C14S          -14.4784782965      -26.3977823151        6.4053592724  MEMB      46              0.0000000000
      5143        46  OSM       H14S          -15.3162658939      -25.6743735538        6.3099001630  MEMB      46              0.0000000000
      5144        46  OSM       H14T          -14.9477992581      -27.3786387186        6.6333508793  MEMB      46              0.0000000000
      5145        46  OSM       C15S          -13.7129032984      -26.6433552638        5.0819919162  MEMB      46              0.0000000000
      5146        46  OSM       H15S          -13.0594340057      -27.5093985640        5.3212990385  MEMB      46              0.0000000000
      5147        46  OSM       H15T          -13.0068024195      -25.8135383555        4.8648587537  MEMB      46              0.0000000000
      5148        46  OSM       C16S          -14.6550986323      -26.7024480534        3.9638051309  MEMB      46              0.0000000000
      5149        46  OSM       H16S          -15.0994647564      -25.6864955200        3.8952469880  MEMB      46              0.0000000000
      5150        46  OSM       H16T          -15.5008704436      -27.4036918734        4.1288743453  MEMB      46              0.0000000000
      5151        46  OSM       C17S          -13.9675884714      -27.1477305205        2.6156465521  MEMB      46              0.0000000000
      5152        46  OSM       H17S          -13.5209751357      -28.1355277117        2.8587827464  MEMB      46              0.0000000000
      5153        46  OSM       H17T          -13.1917284005      -26.3792540426        2.4111838478  MEMB      46              0.0000000000
      5154        46  OSM       C18S          -14.9228675732      -27.1186364712        1.4489246462  MEMB      46              0.0000000000
      5155        46  OSM       H18S          -14.5110627355      -27.7051290900        0.5999468648  MEMB      46              0.0000000000
      5156        46  OSM       H18T          -15.0176501788      -26.0994773013        1.0168939284  MEMB      46              0.0000000000
      5157        46  OSM       H18U          -15.9196593683      -27.4988766184        1.7589987558  MEMB      46              0.0000000000
      5158        46  OSM       C1F           -12.7320936862      -25.5719425157       17.1842017573  MEMB      46              0.0000000000
      5159        46  OSM       OF            -12.4292796625      -25.0452943764       18.2303585913  MEMB      46              0.0000000000
      5160        46  OSM       C2F           -12.6614213258      -24.9098479741       15.8636438284  MEMB      46              0.0000000000
      5161        46  OSM       H2F           -13.4023666051      -24.0901274813       15.9793140587  MEMB      46              0.0000000000
      5162        46  OSM       H2G           -12.8294042906      -25.5572371040       14.9765193512  MEMB      46              0.0000000000
      5163        46  OSM       C3F           -11.2434373859      -24.2708060967       15.5564420095  MEMB      46              0.0000000000
      5164        46  OSM       H3F           -11.0560218626      -23.5625609530       16.3916577767  MEMB      46              0.0000000000
      5165        46  OSM       H3G           -11.3550422206      -23.7833028045       14.5643705278  MEMB      46              0.0000000000
      5166        46  OSM       C4F           -10.1516085921      -25.2750036493       15.5760280086  MEMB      46              0.0000000000
      5167        46  OSM       H4F           -10.3311110283      -26.2145998570       15.0109977779  MEMB      46              0.0000000000
      5168        46  OSM       H4G            -9.9475649750      -25.6414075848       16.6048306646  MEMB      46              0.0000000000
      5169        46  OSM       C5F            -8.7201892757      -24.8279505157       15.1157659332  MEMB      46              0.0000000000
      5170        46  OSM       H5F            -7.9826559594      -25.6008073907       15.4208202061  MEMB      46              0.0000000000
      5171        46  OSM       H5G            -8.6329241346      -23.8766399830       15.6829643929  MEMB      46              0.0000000000
      5172        46  OSM       C6F            -8.6086610142      -24.6488351739       13.5575598262  MEMB      46              0.0000000000
      5173        46  OSM       H6F            -7.9681237731      -23.7728351771       13.3195326723  MEMB      46              0.0000000000
      5174        46  OSM       H6G            -9.5994350499      -24.4282639937       13.1058561471  MEMB      46              0.0000000000
      5175        46  OSM       C7F            -8.0143751671      -25.9377440788       12.9842791676  MEMB      46              0.0000000000
      5176        46  OSM       H7F            -8.8053793013      -26.6818077032       13.2188060772  MEMB      46              0.0000000000
      5177        46  OSM       H7G            -7.1197274969      -26.2138783680       13.5823395591  MEMB      46              0.0000000000
      5178        46  OSM       C8F            -7.7472261781      -25.9773385147       11.4629364221  MEMB      46              0.0000000000
      5179        46  OSM       H8F            -8.7531747016      -25.8496637603       11.0089679469  MEMB      46              0.0000000000
      5180        46  OSM       H8G            -7.4604285918      -27.0421587714       11.3279327317  MEMB      46              0.0000000000
      5181        46  OSM       C9F            -6.6877450796      -24.9776444892       11.0869365471  MEMB      46              0.0000000000
      5182        46  OSM       H9F            -5.6500377185      -25.1390092391       11.4142363619  MEMB      46              0.0000000000
      5183        46  OSM       C10F           -6.9517525644      -23.9122121237       10.3071030109  MEMB      46              0.0000000000
      5184        46  OSM       H10F           -6.1280044703      -23.1832917270       10.2964427398  MEMB      46              0.0000000000
      5185        46  OSM       C11F           -8.2517793613      -23.4163231157        9.6273229038  MEMB      46              0.0000000000
      5186        46  OSM       H11F           -8.3874740012      -22.3632249755        9.9542659465  MEMB      46              0.0000000000
      5187        46  OSM       H11G           -9.2268872474      -23.9009590480        9.8478077249  MEMB      46              0.0000000000
      5188        46  OSM       C12F           -8.1945565780      -23.3486151653        8.0634759935  MEMB      46              0.0000000000
      5189        46  OSM       H12F           -8.1994534116      -24.3852980836        7.6639947564  MEMB      46              0.0000000000
      5190        46  OSM       H12G           -7.2385285609      -22.8520058309        7.7919786288  MEMB      46              0.0000000000
      5191        46  OSM       C13F           -9.3750906637      -22.6462641910        7.4572473390  MEMB      46              0.0000000000
      5192        46  OSM       H13F           -9.1192664506      -21.5691541776        7.5505693334  MEMB      46              0.0000000000
      5193        46  OSM       H13G          -10.3299952283      -22.8565527786        7.9847493174  MEMB      46              0.0000000000
      5194        46  OSM       C14F           -9.5673930249      -22.9330282494        5.9992518119  MEMB      46              0.0000000000
      5195        46  OSM       H14F           -8.7741836159      -22.7372143050        5.2463932555  MEMB      46              0.0000000000
      5196        46  OSM       H14G          -10.4453570269      -22.3144729603        5.7148414435  MEMB      46              0.0000000000
      5197        46  OSM       C15F           -9.9496324628      -24.3555135552        5.5822886767  MEMB      46              0.0000000000
      5198        46  OSM       H15F          -10.5778502367      -24.6823702097        6.4383433216  MEMB      46              0.0000000000
      5199        46  OSM       H15G           -9.0836603403      -25.0265830648        5.7668938020  MEMB      46              0.0000000000
      5200        46  OSM       C16F          -10.6599578428      -24.4999468563        4.2424780848  MEMB      46              0.0000000000
      5201        46  OSM       H16F          -11.6099055884      -23.9323037532        4.3409741578  MEMB      46              0.0000000000
      5202        46  OSM       H16G          -10.9102621142      -25.5750359515        4.1165724147  MEMB      46              0.0000000000
      5203        46  OSM       C17F           -9.9832085898      -23.9998499561        2.9456802170  MEMB      46              0.0000000000
      5204        46  OSM       H17F           -8.9044237752      -24.2547989523        3.0201478316  MEMB      46              0.0000000000
      5205        46  OSM       H17G          -10.0929127774      -22.8944274768        2.9637653913  MEMB      46              0.0000000000
      5206        46  OSM       C18F          -10.5882619495      -24.4245722619        1.6330266546  MEMB      46              0.0000000000
      5207        46  OSM       H18F          -10.4004016132      -25.5045318598        1.4521493443  MEMB      46              0.0000000000
      5208        46  OSM       H18G          -10.0086065682      -23.8984481635        0.8446656880  MEMB      46              0.0000000000
      5209        46  OSM       H18H          -11.6730379408      -24.2448314435        1.4740445376  MEMB      46              0.0000000000
      5210        47  OSM       N              23.8830675372       17.7321700888       22.1497119255  MEMB      47              0.0000000000
      5211        47  OSM       C15            24.7466890308       17.0474549168       23.2354661158  MEMB      47              0.0000000000
      5212        47  OSM       H15A           24.3906122994       17.4929994205       24.1525808453  MEMB      47              0.0000000000
      5213        47  OSM       H15B           25.7876711453       17.2296639256       23.0128539532  MEMB      47              0.0000000000
      5214        47  OSM       H15C           24.5918961754       15.9814566553       23.1574474151  MEMB      47              0.0000000000
      5215        47  OSM       C14            24.0970727531       19.2632324347       22.2312085452  MEMB      47              0.0000000000
      5216        47  OSM       H14A           23.2908742199       19.7296859348       21.6845229061  MEMB      47              0.0000000000
      5217        47  OSM       H14B           25.0307360698       19.6074926735       21.8114974571  MEMB      47              0.0000000000
      5218        47  OSM       H14C           24.0935252514       19.5236223679       23.2793422768  MEMB      47              0.0000000000
      5219        47  OSM       C13            24.1672805300       17.0988785066       20.7173412530  MEMB      47              0.0000000000
      5220        47  OSM       H13A           23.6449726705       16.1545028147       20.6755194717  MEMB      47              0.0000000000
      5221        47  OSM       H13B           25.2300482914       17.0869379382       20.5255552428  MEMB      47              0.0000000000
      5222        47  OSM       H13C           23.6623952576       17.7634293445       20.0318756207  MEMB      47              0.0000000000
      5223        47  OSM       C12            22.3730602277       17.5563979554       22.5606760806  MEMB      47              0.0000000000
      5224        47  OSM       H12A           22.2074571742       18.0270726738       23.5185073672  MEMB      47              0.0000000000
      5225        47  OSM       H12B           22.1354965104       16.5029571536       22.5456439152  MEMB      47              0.0000000000
      5226        47  OSM       C11            21.3003292405       18.1912459767       21.6326138302  MEMB      47              0.0000000000
      5227        47  OSM       H11A           21.2117743638       19.2958769000       21.7117935535  MEMB      47              0.0000000000
      5228        47  OSM       H11B           20.3335910650       17.8540056917       22.0638995263  MEMB      47              0.0000000000
      5229        47  OSM       P              20.6929962748       16.6252783871       19.7533362651  MEMB      47              0.0000000000
      5230        47  OSM       O13            21.4354790786       15.3750217513       20.1249780946  MEMB      47              0.0000000000
      5231        47  OSM       O14            19.2881917295       16.6707092591       20.1572957136  MEMB      47              0.0000000000
      5232        47  OSM       O11            20.7246526981       16.7646070988       18.1847389546  MEMB      47              0.0000000000
      5233        47  OSM       O12            21.4027397969       17.9120935264       20.2526332189  MEMB      47              0.0000000000
      5234        47  OSM       C1S            21.8253561353       17.4071018621       17.5322992549  MEMB      47              0.0000000000
      5235        47  OSM       H1S            22.7683919048       16.8801103960       17.7916918561  MEMB      47              0.0000000000
      5236        47  OSM       H1T            21.8211795962       18.4762716472       17.8342588424  MEMB      47              0.0000000000
      5237        47  OSM       NF             22.0869263797       16.0551645615       15.5820870123  MEMB      47              0.0000000000
      5238        47  OSM       HNF            22.8529261219       16.0481824842       14.9439611176  MEMB      47              0.0000000000
      5239        47  OSM       C2S            21.7588479981       17.3878143280       15.9661514247  MEMB      47              0.0000000000
      5240        47  OSM       H2S            20.7418745413       17.5930445090       15.5687012338  MEMB      47              0.0000000000
      5241        47  OSM       C3S            22.7360789493       18.4456679487       15.3997504337  MEMB      47              0.0000000000
      5242        47  OSM       H3S            23.6692518445       18.3200853116       15.9894441320  MEMB      47              0.0000000000
      5243        47  OSM       O3             22.2496282339       19.7264853183       15.7136846997  MEMB      47              0.0000000000
      5244        47  OSM       HO3            21.4222497924       19.5531493470       16.1686566599  MEMB      47              0.0000000000
      5245        47  OSM       C4S            22.8235694271       18.2334909201       13.9506776336  MEMB      47              0.0000000000
      5246        47  OSM       H4S            21.8792989471       18.3848318568       13.4071254487  MEMB      47              0.0000000000
      5247        47  OSM       C5S            23.8580615506       17.7372814546       13.2202164804  MEMB      47              0.0000000000
      5248        47  OSM       H5S            24.7611760765       17.5271321906       13.8120115484  MEMB      47              0.0000000000
      5249        47  OSM       C6S            23.8832210544       17.4456257125       11.7535525889  MEMB      47              0.0000000000
      5250        47  OSM       H6S            23.0424454265       17.7392346815       11.0893158787  MEMB      47              0.0000000000
      5251        47  OSM       H6T            24.2800267857       16.4272415912       11.5541537987  MEMB      47              0.0000000000
      5252        47  OSM       C7S            24.9608372101       18.2867646802       11.0614936066  MEMB      47              0.0000000000
      5253        47  OSM       H7S            25.9145086491       18.2582099914       11.6307188623  MEMB      47              0.0000000000
      5254        47  OSM       H7T            24.5164423785       19.3040954123       11.1047651866  MEMB      47              0.0000000000
      5255        47  OSM       C8S            25.2914643741       17.9046795751        9.6115611973  MEMB      47              0.0000000000
      5256        47  OSM       H8S            25.9976188560       17.0470078425        9.6034303062  MEMB      47              0.0000000000
      5257        47  OSM       H8T            25.8331989350       18.7266751320        9.0966165972  MEMB      47              0.0000000000
      5258        47  OSM       C9S            24.0610772961       17.4405056786        8.7781497244  MEMB      47              0.0000000000
      5259        47  OSM       H9S            23.2045218670       18.1476982326        8.8007928132  MEMB      47              0.0000000000
      5260        47  OSM       H9T            23.6202806780       16.5034429704        9.1805585408  MEMB      47              0.0000000000
      5261        47  OSM       C10S           24.4664197746       17.1500646841        7.3265157950  MEMB      47              0.0000000000
      5262        47  OSM       H10S           23.6449590367       16.5859267636        6.8353216844  MEMB      47              0.0000000000
      5263        47  OSM       H10T           25.3432104588       16.4677456611        7.3264103936  MEMB      47              0.0000000000
      5264        47  OSM       C11S           24.7423795125       18.3739916552        6.4392931728  MEMB      47              0.0000000000
      5265        47  OSM       H11S           24.9848013614       18.0844038150        5.3944529319  MEMB      47              0.0000000000
      5266        47  OSM       H11T           25.7165418948       18.8545197381        6.6725769956  MEMB      47              0.0000000000
      5267        47  OSM       C12S           23.5383444844       19.2316793676        6.1427002299  MEMB      47              0.0000000000
      5268        47  OSM       H12S           23.6957710374       19.8374397727        5.2247722212  MEMB      47              0.0000000000
      5269        47  OSM       H12T           23.3008830553       19.8534726584        7.0322545549  MEMB      47              0.0000000000
      5270        47  OSM       C13S           22.2467231614       18.4580509826        5.8461749505  MEMB      47              0.0000000000
      5271        47  OSM       H13S           21.8603448959       18.0829461747        6.8179408070  MEMB      47              0.0000000000
      5272        47  OSM       H13T           22.3728632867       17.6689268670        5.0743635457  MEMB      47              0.0000000000
      5273        47  OSM       C14S           21.1852931740       19.3977473094        5.1393678102  MEMB      47              0.0000000000
      5274        47  OSM       H14S           21.6185686089       19.5382848143        4.1260347472  MEMB      47              0.0000000000
      5275        47  OSM       H14T           21.1198287555       20.3258619676        5.7465238739  MEMB      47              0.0000000000
      5276        47  OSM       C15S           19.8445769108       18.7086362305        5.0107160073  MEMB      47              0.0000000000
      5277        47  OSM       H15S           19.3267452106       18.6072390808        5.9884115920  MEMB      47              0.0000000000
      5278        47  OSM       H15T           20.0165790928       17.6864238402        4.6109432254  MEMB      47              0.0000000000
      5279        47  OSM       C16S           18.8954328304       19.4521987709        4.1236489648  MEMB      47              0.0000000000
      5280        47  OSM       H16S           19.0126151947       20.5267261162        4.3805168848  MEMB      47              0.0000000000
      5281        47  OSM       H16T           17.8508892820       19.1065489891        4.2778416762  MEMB      47              0.0000000000
      5282        47  OSM       C17S           19.1402936970       19.3120701861        2.5797397789  MEMB      47              0.0000000000
      5283        47  OSM       H17S           20.1899167726       19.6195462844        2.3846229192  MEMB      47              0.0000000000
      5284        47  OSM       H17T           18.5006132453       20.0418529139        2.0388638605  MEMB      47              0.0000000000
      5285        47  OSM       C18S           19.0074311424       17.8966549964        1.9872126541  MEMB      47              0.0000000000
      5286        47  OSM       H18S           18.6991902010       18.0274819681        0.9278760257  MEMB      47              0.0000000000
      5287        47  OSM       H18T           18.2476510666       17.3091662785        2.5457027227  MEMB      47              0.0000000000
      5288        47  OSM       H18U           19.9978964346       17.3945033044        2.0210304410  MEMB      47              0.0000000000
      5289        47  OSM       C1F            21.2914841596       14.9306084455       15.7780256872  MEMB      47              0.0000000000
      5290        47  OSM       OF             20.1261794045       15.0441642372       16.2168613102  MEMB      47              0.0000000000
      5291        47  OSM       C2F            22.0212734074       13.6523091968       15.4224609856  MEMB      47              0.0000000000
      5292        47  OSM       H2F            22.3518809642       13.2125386324       16.3876665041  MEMB      47              0.0000000000
      5293        47  OSM       H2G            22.9495187942       13.7945636282       14.8287900645  MEMB      47              0.0000000000
      5294        47  OSM       C3F            21.0944040341       12.6874870609       14.5408741959  MEMB      47              0.0000000000
      5295        47  OSM       H3F            20.2628757503       12.3737935105       15.2075657568  MEMB      47              0.0000000000
      5296        47  OSM       H3G            21.7154071905       11.7948658954       14.3130507367  MEMB      47              0.0000000000
      5297        47  OSM       C4F            20.4800908787       13.2492876078       13.2533813469  MEMB      47              0.0000000000
      5298        47  OSM       H4F            19.8745199000       14.1245165913       13.5720955796  MEMB      47              0.0000000000
      5299        47  OSM       H4G            19.7047740086       12.5319325995       12.9089877887  MEMB      47              0.0000000000
      5300        47  OSM       C5F            21.4619835022       13.4731685830       12.1230521479  MEMB      47              0.0000000000
      5301        47  OSM       H5F            22.2952354683       12.7450770615       12.2225245032  MEMB      47              0.0000000000
      5302        47  OSM       H5G            21.8167534731       14.5165241464       12.2640075211  MEMB      47              0.0000000000
      5303        47  OSM       C6F            20.8603050826       13.5018777478       10.6736640688  MEMB      47              0.0000000000
      5304        47  OSM       H6F            19.9170072776       14.0850520732       10.7401321914  MEMB      47              0.0000000000
      5305        47  OSM       H6G            20.5899780022       12.4440471128       10.4681432862  MEMB      47              0.0000000000
      5306        47  OSM       C7F            21.7955938499       14.1117740344        9.6435513379  MEMB      47              0.0000000000
      5307        47  OSM       H7F            22.7841349355       14.2380605139       10.1346318227  MEMB      47              0.0000000000
      5308        47  OSM       H7G            21.6028615805       15.1687546492        9.3607662357  MEMB      47              0.0000000000
      5309        47  OSM       C8F            22.0496037696       13.1961337174        8.4128413710  MEMB      47              0.0000000000
      5310        47  OSM       H8F            22.3904166237       12.1979737738        8.7619034841  MEMB      47              0.0000000000
      5311        47  OSM       H8G            22.8839915006       13.6317327870        7.8226114139  MEMB      47              0.0000000000
      5312        47  OSM       C9F            20.8316387440       12.9088172771        7.5842131513  MEMB      47              0.0000000000
      5313        47  OSM       H9F            20.2741753914       12.1223126234        8.1139735218  MEMB      47              0.0000000000
      5314        47  OSM       C10F           20.4078392601       13.3951682050        6.4104034756  MEMB      47              0.0000000000
      5315        47  OSM       H10F           19.4517924710       13.0116794134        6.0245131148  MEMB      47              0.0000000000
      5316        47  OSM       C11F           21.0912379572       14.4099286145        5.5325572774  MEMB      47              0.0000000000
      5317        47  OSM       H11F           22.1945842603       14.3671057174        5.6554970397  MEMB      47              0.0000000000
      5318        47  OSM       H11G           20.8066750710       15.4291211273        5.8710716555  MEMB      47              0.0000000000
      5319        47  OSM       C12F           20.8413498527       14.2360849725        4.0346695668  MEMB      47              0.0000000000
      5320        47  OSM       H12F           19.7627986805       14.3449949694        3.7913858821  MEMB      47              0.0000000000
      5321        47  OSM       H12G           20.9598376505       13.1899598223        3.6798381979  MEMB      47              0.0000000000
      5322        47  OSM       C13F           21.7308759940       15.0907227062        3.1357633142  MEMB      47              0.0000000000
      5323        47  OSM       H13F           21.6677809203       16.1476616515        3.4722454902  MEMB      47              0.0000000000
      5324        47  OSM       H13G           21.3315198932       14.9601870923        2.1072717586  MEMB      47              0.0000000000
      5325        47  OSM       C14F           23.1460808278       14.5339416940        3.0698973996  MEMB      47              0.0000000000
      5326        47  OSM       H14F           22.9252062400       13.5279415596        2.6533654593  MEMB      47              0.0000000000
      5327        47  OSM       H14G           23.5315603480       14.5356842632        4.1118787912  MEMB      47              0.0000000000
      5328        47  OSM       C15F           24.2799004408       15.2410997597        2.2248502631  MEMB      47              0.0000000000
      5329        47  OSM       H15F           24.6580802870       16.0733839029        2.8562031934  MEMB      47              0.0000000000
      5330        47  OSM       H15G           23.7978619819       15.6091338947        1.2939850915  MEMB      47              0.0000000000
      5331        47  OSM       C16F           25.5322641961       14.4009807635        1.8656535182  MEMB      47              0.0000000000
      5332        47  OSM       H16F           25.2840020028       13.3376150557        1.6608586304  MEMB      47              0.0000000000
      5333        47  OSM       H16G           26.1277719187       14.4286810634        2.8031620525  MEMB      47              0.0000000000
      5334        47  OSM       C17F           26.5754814274       14.9956390619        0.8918660037  MEMB      47              0.0000000000
      5335        47  OSM       H17F           27.4408265737       14.3006658089        0.8417620401  MEMB      47              0.0000000000
      5336        47  OSM       H17G           26.9755907861       15.9640956056        1.2610886772  MEMB      47              0.0000000000
      5337        47  OSM       C18F           26.1083263443       15.2416704041       -0.5434070003  MEMB      47              0.0000000000
      5338        47  OSM       H18F           26.7273181304       16.0086672792       -1.0561302256  MEMB      47              0.0000000000
      5339        47  OSM       H18G           25.0430725367       15.5467083664       -0.6240735507  MEMB      47              0.0000000000
      5340        47  OSM       H18H           26.3202865166       14.2604523804       -1.0194371372  MEMB      47              0.0000000000
      5341        48  CHL1      C3            -27.5113879501        5.8748694869       17.3496650000  MEMB      48              0.0000000000
      5342        48  CHL1      H3            -26.8316960875        6.5557438130       16.7940250000  MEMB      48              0.0000000000
      5343        48  CHL1      O3            -27.7316826499        6.3456346331       18.6503350000  MEMB      48              0.0000000000
      5344        48  CHL1      H3'           -28.0556881859        5.6480354368       19.2247650000  MEMB      48              0.0000000000
      5345        48  CHL1      C4            -28.8926045485        6.0029121130       16.6798750000  MEMB      48              0.0000000000
      5346        48  CHL1      H4A           -29.5635189069        5.3433322326       17.2707650000  MEMB      48              0.0000000000
      5347        48  CHL1      H4B           -29.3436752022        7.0147910246       16.7632150000  MEMB      48              0.0000000000
      5348        48  CHL1      C5            -28.7301016810        5.6343687986       15.2272450000  MEMB      48              0.0000000000
      5349        48  CHL1      C6            -28.9552770838        6.4790156364       14.2517650000  MEMB      48              0.0000000000
      5350        48  CHL1      H6            -29.3539386126        7.4760297837       14.4905950000  MEMB      48              0.0000000000
      5351        48  CHL1      C7            -28.9565731041        6.0501112315       12.8348150000  MEMB      48              0.0000000000
      5352        48  CHL1      H7A           -29.7698298828        6.5690332998       12.2837650000  MEMB      48              0.0000000000
      5353        48  CHL1      H7B           -28.0551038166        6.4711766875       12.3404750000  MEMB      48              0.0000000000
      5354        48  CHL1      C8            -28.9814434758        4.5558033261       12.5150650000  MEMB      48              0.0000000000
      5355        48  CHL1      H8            -30.0075488377        4.2015583307       12.7515750000  MEMB      48              0.0000000000
      5356        48  CHL1      C14           -28.5721827182        4.3102519320       11.0929750000  MEMB      48              0.0000000000
      5357        48  CHL1      H14           -27.5634693988        4.7507552386       10.9420850000  MEMB      48              0.0000000000
      5358        48  CHL1      C15           -29.3449196830        5.0542159395        9.9521750000  MEMB      48              0.0000000000
      5359        48  CHL1      H15A          -30.4459113405        4.9707165201       10.0753650000  MEMB      48              0.0000000000
      5360        48  CHL1      H15B          -29.0552193563        6.1253972716        9.8977950000  MEMB      48              0.0000000000
      5361        48  CHL1      C16           -28.8534984164        4.2722059610        8.7427550000  MEMB      48              0.0000000000
      5362        48  CHL1      H16A          -29.6183461518        3.9239349589        8.0160950000  MEMB      48              0.0000000000
      5363        48  CHL1      H16B          -28.1684685314        4.9463504048        8.1854550000  MEMB      48              0.0000000000
      5364        48  CHL1      C17           -28.0957098338        3.0002551606        9.2021550000  MEMB      48              0.0000000000
      5365        48  CHL1      H17           -27.0327105308        3.3230101828        9.2151250000  MEMB      48              0.0000000000
      5366        48  CHL1      C13           -28.4717376784        2.8514282394       10.7099850000  MEMB      48              0.0000000000
      5367        48  CHL1      C18           -29.8895121981        2.2046622090       10.9347350000  MEMB      48              0.0000000000
      5368        48  CHL1      H18A          -30.0020570538        1.9501449270       12.0103150000  MEMB      48              0.0000000000
      5369        48  CHL1      H18B          -30.7150610274        2.7635518791       10.4443950000  MEMB      48              0.0000000000
      5370        48  CHL1      H18C          -29.7945263525        1.1655324503       10.5532750000  MEMB      48              0.0000000000
      5371        48  CHL1      C12           -27.4848955033        2.0934000954       11.6586550000  MEMB      48              0.0000000000
      5372        48  CHL1      H12A          -27.5739789250        1.0068808042       11.4445150000  MEMB      48              0.0000000000
      5373        48  CHL1      H12B          -26.4758362863        2.4361016492       11.3445250000  MEMB      48              0.0000000000
      5374        48  CHL1      C11           -27.7958746384        2.3408515831       13.1328050000  MEMB      48              0.0000000000
      5375        48  CHL1      H11A          -28.7157221064        1.7946424030       13.4325450000  MEMB      48              0.0000000000
      5376        48  CHL1      H11B          -27.1268721106        1.9344555194       13.9212250000  MEMB      48              0.0000000000
      5377        48  CHL1      C9            -28.0569565599        3.8529289140       13.4884950000  MEMB      48              0.0000000000
      5378        48  CHL1      H9            -27.0519591020        4.2652671292       13.2555550000  MEMB      48              0.0000000000
      5379        48  CHL1      C10           -28.2998936642        4.1756313289       15.0083350000  MEMB      48              0.0000000000
      5380        48  CHL1      C19           -29.4505497901        3.2767727905       15.5330950000  MEMB      48              0.0000000000
      5381        48  CHL1      H19A          -29.6208919925        3.4827668820       16.6114650000  MEMB      48              0.0000000000
      5382        48  CHL1      H19B          -30.4066213292        3.3867117962       14.9779650000  MEMB      48              0.0000000000
      5383        48  CHL1      H19C          -29.1922949548        2.1974598374       15.5851450000  MEMB      48              0.0000000000
      5384        48  CHL1      C1            -27.0438412963        3.9054511111       15.8288250000  MEMB      48              0.0000000000
      5385        48  CHL1      H1A           -26.9495211221        2.7999836000       15.7707450000  MEMB      48              0.0000000000
      5386        48  CHL1      H1B           -26.1941395247        4.3186749349       15.2443850000  MEMB      48              0.0000000000
      5387        48  CHL1      C2            -27.0112228333        4.4401992535       17.2655650000  MEMB      48              0.0000000000
      5388        48  CHL1      H2A           -25.9535095565        4.3918423163       17.6020550000  MEMB      48              0.0000000000
      5389        48  CHL1      H2B           -27.6358733501        3.7619257067       17.8853150000  MEMB      48              0.0000000000
      5390        48  CHL1      C20           -28.2804218982        1.7658287757        8.2179950000  MEMB      48              0.0000000000
      5391        48  CHL1      H20           -29.3121955008        1.3754371906        8.3497350000  MEMB      48              0.0000000000
      5392        48  CHL1      C21           -27.3580748542        0.6489964906        8.5753550000  MEMB      48              0.0000000000
      5393        48  CHL1      H21A          -27.3935581625       -0.1822075487        7.8390350000  MEMB      48              0.0000000000
      5394        48  CHL1      H21B          -27.6135107461        0.1941213886        9.5562450000  MEMB      48              0.0000000000
      5395        48  CHL1      H21C          -26.3020044814        0.9528219717        8.7388550000  MEMB      48              0.0000000000
      5396        48  CHL1      C22           -28.2181612411        2.1119184043        6.7529050000  MEMB      48              0.0000000000
      5397        48  CHL1      H22A          -28.3122636345        1.1282877195        6.2450350000  MEMB      48              0.0000000000
      5398        48  CHL1      H22B          -29.0003752968        2.8075585621        6.3806750000  MEMB      48              0.0000000000
      5399        48  CHL1      C23           -27.0433947083        2.9393938217        6.2308350000  MEMB      48              0.0000000000
      5400        48  CHL1      H23A          -26.7509617748        3.7341193428        6.9500150000  MEMB      48              0.0000000000
      5401        48  CHL1      H23B          -26.0639033583        2.4265681856        6.1216850000  MEMB      48              0.0000000000
      5402        48  CHL1      C24           -27.2273494879        3.5108086783        4.8358050000  MEMB      48              0.0000000000
      5403        48  CHL1      H24A          -27.7413464806        2.7108118141        4.2612250000  MEMB      48              0.0000000000
      5404        48  CHL1      H24B          -27.9055586753        4.3848587780        4.9377650000  MEMB      48              0.0000000000
      5405        48  CHL1      C25           -25.8109985371        3.9465939265        4.1408550000  MEMB      48              0.0000000000
      5406        48  CHL1      H25           -25.1107978091        3.0867988660        4.2100050000  MEMB      48              0.0000000000
      5407        48  CHL1      C26           -26.0357758746        4.4134753168        2.6415350000  MEMB      48              0.0000000000
      5408        48  CHL1      H26A          -26.6479579569        5.3202850485        2.4485250000  MEMB      48              0.0000000000
      5409        48  CHL1      H26B          -25.0542256657        4.5425226896        2.1373350000  MEMB      48              0.0000000000
      5410        48  CHL1      H26C          -26.5289253960        3.5409722326        2.1621150000  MEMB      48              0.0000000000
      5411        48  CHL1      C27           -25.2271026314        5.1838394099        4.8340750000  MEMB      48              0.0000000000
      5412        48  CHL1      H27A          -25.6655637224        6.1300461971        4.4509750000  MEMB      48              0.0000000000
      5413        48  CHL1      H27B          -25.5265160594        5.0650056541        5.8973550000  MEMB      48              0.0000000000
      5414        48  CHL1      H27C          -24.1162491138        5.2014323325        4.8378150000  MEMB      48              0.0000000000
      5415        49  SOPE      N              -0.1008435884       29.7231026517       23.5589796057  MEMB      49              0.0000000000
      5416        49  SOPE      HN1            -0.2556012501       30.6519115408       23.1174325262  MEMB      49              0.0000000000
      5417        49  SOPE      HN2            -0.7087851324       28.9840457265       23.1517916577  MEMB      49              0.0000000000
      5418        49  SOPE      HN3            -0.1565164692       29.7182073901       24.5974770734  MEMB      49              0.0000000000
      5419        49  SOPE      C12             1.2869831509       29.1744295305       23.1564953208  MEMB      49              0.0000000000
      5420        49  SOPE      H12A            1.0718909306       28.1465013289       22.7939765949  MEMB      49              0.0000000000
      5421        49  SOPE      H12B            1.8100879241       28.9120662818       24.1008721617  MEMB      49              0.0000000000
      5422        49  SOPE      C11             2.0960471519       30.0887184066       22.2153818381  MEMB      49              0.0000000000
      5423        49  SOPE      H11A            3.0340742704       29.5589127202       21.9438453923  MEMB      49              0.0000000000
      5424        49  SOPE      H11B            2.3477350788       31.0537229933       22.7050144998  MEMB      49              0.0000000000
      5425        49  SOPE      P               1.2775610153       29.4490981358       19.8239321390  MEMB      49              0.0000000000
      5426        49  SOPE      O13            -0.0603016629       28.8966562462       19.7873270018  MEMB      49              0.0000000000
      5427        49  SOPE      O14             2.4234667653       28.5529440506       19.7265495878  MEMB      49              0.0000000000
      5428        49  SOPE      O12             1.3571778645       30.4300784595       21.0725109161  MEMB      49              0.0000000000
      5429        49  SOPE      O11             1.4573316193       30.5020237203       18.6588235909  MEMB      49              0.0000000000
      5430        49  SOPE      C1              0.3514564193       31.2138862394       18.0038961733  MEMB      49              0.0000000000
      5431        49  SOPE      HA              0.6362810439       32.2860522881       18.0643585663  MEMB      49              0.0000000000
      5432        49  SOPE      HB             -0.6046556479       31.2054170633       18.5696691120  MEMB      49              0.0000000000
      5433        49  SOPE      C2              0.1540487932       30.6664028865       16.5758244278  MEMB      49              0.0000000000
      5434        49  SOPE      HS             -0.2452021525       29.6298382187       16.5971161278  MEMB      49              0.0000000000
      5435        49  SOPE      O21             1.3163943352       30.8035489329       15.8879382708  MEMB      49              0.0000000000
      5436        49  SOPE      C21             1.5874022924       29.9842743332       14.9336977297  MEMB      49              0.0000000000
      5437        49  SOPE      O22             0.8789098790       29.1229212246       14.4679404732  MEMB      49              0.0000000000
      5438        49  SOPE      C22             3.0621920852       30.1910651768       14.4927455139  MEMB      49              0.0000000000
      5439        49  SOPE      H2R             3.7859852362       29.6034111823       15.0969866022  MEMB      49              0.0000000000
      5440        49  SOPE      H2S             3.3132278639       31.2660880937       14.6177553168  MEMB      49              0.0000000000
      5441        49  SOPE      C3             -1.0038353589       31.6367978611       15.9500279942  MEMB      49              0.0000000000
      5442        49  SOPE      HX             -0.7641846544       32.7116704698       16.0967840900  MEMB      49              0.0000000000
      5443        49  SOPE      HY             -1.9358922327       31.3678508572       16.4915614775  MEMB      49              0.0000000000
      5444        49  SOPE      O31            -1.0679811365       31.4225079888       14.5448325087  MEMB      49              0.0000000000
      5445        49  SOPE      C31            -2.0071107336       30.5208761566       14.1670806540  MEMB      49              0.0000000000
      5446        49  SOPE      O32            -2.7460620718       29.8936536965       14.8722291787  MEMB      49              0.0000000000
      5447        49  SOPE      C32            -1.9739699532       30.2304403944       12.7048522373  MEMB      49              0.0000000000
      5448        49  SOPE      H2X            -1.7529371533       29.1444976343       12.6261518634  MEMB      49              0.0000000000
      5449        49  SOPE      H2Y            -1.0919263738       30.8003797482       12.3422374752  MEMB      49              0.0000000000
      5450        49  SOPE      C23             3.3368489473       29.6754096080       13.0627450754  MEMB      49              0.0000000000
      5451        49  SOPE      H3R             3.1169430978       28.5864368872       13.0527130685  MEMB      49              0.0000000000
      5452        49  SOPE      H3S             4.4381623239       29.7697744264       12.9508303028  MEMB      49              0.0000000000
      5453        49  SOPE      C24             2.5095873687       30.1323816024       11.8518143092  MEMB      49              0.0000000000
      5454        49  SOPE      H4R             2.8359269822       29.6327252523       10.9147088784  MEMB      49              0.0000000000
      5455        49  SOPE      H4S             1.4541676736       29.8171966681       11.9969656544  MEMB      49              0.0000000000
      5456        49  SOPE      C25             2.4481844959       31.6140682593       11.4757173494  MEMB      49              0.0000000000
      5457        49  SOPE      H5R             2.0962014454       32.0875247958       12.4171354092  MEMB      49              0.0000000000
      5458        49  SOPE      H5S             3.4675033285       31.9623339027       11.2036487169  MEMB      49              0.0000000000
      5459        49  SOPE      C26             1.3837104845       31.8859321864       10.4240331616  MEMB      49              0.0000000000
      5460        49  SOPE      H6R             1.7654340436       31.5477995274        9.4369803292  MEMB      49              0.0000000000
      5461        49  SOPE      H6S             0.4782951012       31.2790911541       10.6391801133  MEMB      49              0.0000000000
      5462        49  SOPE      C27             0.9277660277       33.4053682353       10.3117235809  MEMB      49              0.0000000000
      5463        49  SOPE      H7R             0.9608671666       33.7526994807       11.3665155302  MEMB      49              0.0000000000
      5464        49  SOPE      H7S             1.7153861813       33.9546133064        9.7528811284  MEMB      49              0.0000000000
      5465        49  SOPE      C28            -0.4467981379       33.4333171055        9.6319088124  MEMB      49              0.0000000000
      5466        49  SOPE      H8R            -0.3463975763       32.8701973765        8.6794713536  MEMB      49              0.0000000000
      5467        49  SOPE      H8S            -1.1220299723       32.9125582730       10.3440837425  MEMB      49              0.0000000000
      5468        49  SOPE      C29            -0.9676860444       34.8625929774        9.3122872441  MEMB      49              0.0000000000
      5469        49  SOPE      H91            -0.1270969009       35.4316831863        8.8885586630  MEMB      49              0.0000000000
      5470        49  SOPE      C210           -2.2040829713       35.4070320228        9.4942150501  MEMB      49              0.0000000000
      5471        49  SOPE      H101           -2.4309780993       36.4365387060        9.1801540136  MEMB      49              0.0000000000
      5472        49  SOPE      C211           -3.4015318258       34.7521877304       10.0858701686  MEMB      49              0.0000000000
      5473        49  SOPE      H11R           -3.6648259631       35.2390384179       11.0491832869  MEMB      49              0.0000000000
      5474        49  SOPE      H11S           -3.0201930466       33.7720854415       10.4440611411  MEMB      49              0.0000000000
      5475        49  SOPE      C212           -4.5729457373       34.5523090713        9.1898296255  MEMB      49              0.0000000000
      5476        49  SOPE      H12R           -4.8411234673       35.5680768085        8.8284191818  MEMB      49              0.0000000000
      5477        49  SOPE      H12S           -5.5481922934       34.1590646396        9.5484025215  MEMB      49              0.0000000000
      5478        49  SOPE      C213           -4.3429676606       33.5656731158        8.0393107759  MEMB      49              0.0000000000
      5479        49  SOPE      H13R           -5.2785789665       32.9990255602        7.8447274761  MEMB      49              0.0000000000
      5480        49  SOPE      H13S           -3.5122578242       32.8718007762        8.2898784440  MEMB      49              0.0000000000
      5481        49  SOPE      C214           -3.9458278295       34.2953116998        6.7725784356  MEMB      49              0.0000000000
      5482        49  SOPE      H14R           -3.6958678042       35.3672632296        6.9234454643  MEMB      49              0.0000000000
      5483        49  SOPE      H14S           -4.8660343811       34.4494644777        6.1694391262  MEMB      49              0.0000000000
      5484        49  SOPE      C215           -2.8986566379       33.6033402237        5.9328207232  MEMB      49              0.0000000000
      5485        49  SOPE      H15R           -3.1213028409       32.5201212528        5.8261146883  MEMB      49              0.0000000000
      5486        49  SOPE      H15S           -1.8970485504       33.6754914123        6.4081065253  MEMB      49              0.0000000000
      5487        49  SOPE      C216           -2.7618872566       33.9405598529        4.4426176961  MEMB      49              0.0000000000
      5488        49  SOPE      H16R           -2.7437370219       35.0476054267        4.3507384467  MEMB      49              0.0000000000
      5489        49  SOPE      H16S           -3.6378369768       33.5590321646        3.8756358171  MEMB      49              0.0000000000
      5490        49  SOPE      C217           -1.5023345113       33.4205834166        3.6945692845  MEMB      49              0.0000000000
      5491        49  SOPE      H17R           -1.2587222307       32.5174889651        4.2940641936  MEMB      49              0.0000000000
      5492        49  SOPE      H17S           -0.6327540846       34.1043476601        3.7976080869  MEMB      49              0.0000000000
      5493        49  SOPE      C218           -1.6981887684       33.0055170890        2.2130674464  MEMB      49              0.0000000000
      5494        49  SOPE      H18R           -0.7684889557       32.8873010511        1.6164071576  MEMB      49              0.0000000000
      5495        49  SOPE      H18S           -2.2312527275       33.7498049840        1.5836244095  MEMB      49              0.0000000000
      5496        49  SOPE      H18T           -2.2334008167       32.0342265138        2.1462564668  MEMB      49              0.0000000000
      5497        49  SOPE      C33            -3.2812513464       30.7743389102       12.1395508074  MEMB      49              0.0000000000
      5498        49  SOPE      H3X            -3.2839326393       31.8553159828       12.3960702736  MEMB      49              0.0000000000
      5499        49  SOPE      H3Y            -4.0934353127       30.1762732541       12.6053788607  MEMB      49              0.0000000000
      5500        49  SOPE      C34            -3.3365888889       30.6333018895       10.5698397214  MEMB      49              0.0000000000
      5501        49  SOPE      H4X            -2.5815178027       31.2667102743       10.0570216850  MEMB      49              0.0000000000
      5502        49  SOPE      H4Y            -4.3675709965       30.9247265195       10.2757844384  MEMB      49              0.0000000000
      5503        49  SOPE      C35            -3.2033428749       29.2080586479       10.0408596428  MEMB      49              0.0000000000
      5504        49  SOPE      H5X            -3.8203281602       28.5391397658       10.6781957482  MEMB      49              0.0000000000
      5505        49  SOPE      H5Y            -2.1555521401       28.9266229071       10.2801292677  MEMB      49              0.0000000000
      5506        49  SOPE      C36            -3.4600609543       29.0463855247        8.5827038276  MEMB      49              0.0000000000
      5507        49  SOPE      H6X            -4.5476314886       29.1958867792        8.4119386129  MEMB      49              0.0000000000
      5508        49  SOPE      H6Y            -3.2665201175       28.0094155630        8.2340544857  MEMB      49              0.0000000000
      5509        49  SOPE      C37            -2.4997414822       29.8201641166        7.6187832674  MEMB      49              0.0000000000
      5510        49  SOPE      H7X            -1.4411089517       29.6366563527        7.9015256835  MEMB      49              0.0000000000
      5511        49  SOPE      H7Y            -2.6691916240       30.9177721847        7.5893907437  MEMB      49              0.0000000000
      5512        49  SOPE      C38            -2.6248312134       29.4245756691        6.1813785746  MEMB      49              0.0000000000
      5513        49  SOPE      H8X            -2.3688070377       28.3638675806        5.9724020826  MEMB      49              0.0000000000
      5514        49  SOPE      H8Y            -1.8440242520       30.0444705761        5.6910806795  MEMB      49              0.0000000000
      5515        49  SOPE      C39            -4.0598459988       29.5658559063        5.5754647395  MEMB      49              0.0000000000
      5516        49  SOPE      H9X            -4.3591610351       30.6307247886        5.6793187283  MEMB      49              0.0000000000
      5517        49  SOPE      H9Y            -4.8386265329       28.9757571940        6.1042424885  MEMB      49              0.0000000000
      5518        49  SOPE      C310           -4.1964348832       29.1656026296        4.0719243947  MEMB      49              0.0000000000
      5519        49  SOPE      H10X           -3.3715790518       29.6823485862        3.5362878757  MEMB      49              0.0000000000
      5520        49  SOPE      H10Y           -5.1276583991       29.5663482869        3.6174511509  MEMB      49              0.0000000000
      5521        49  SOPE      C311           -4.0758856061       27.6863208361        3.8373075099  MEMB      49              0.0000000000
      5522        49  SOPE      H11X           -5.0547384480       27.2979317511        4.1913158739  MEMB      49              0.0000000000
      5523        49  SOPE      H11Y           -3.2752876625       27.2303958696        4.4581896415  MEMB      49              0.0000000000
      5524        49  SOPE      C312           -3.7707681487       27.1170887125        2.4157851713  MEMB      49              0.0000000000
      5525        49  SOPE      H12X           -4.5625218770       27.5539199340        1.7703201642  MEMB      49              0.0000000000
      5526        49  SOPE      H12Y           -3.9192433413       26.0273601814        2.5731632614  MEMB      49              0.0000000000
      5527        49  SOPE      C313           -2.3799695906       27.4435202996        1.8906733783  MEMB      49              0.0000000000
      5528        49  SOPE      H13X           -2.1414917155       26.6553298503        1.1448806464  MEMB      49              0.0000000000
      5529        49  SOPE      H13Y           -1.5766432685       27.4397617923        2.6581191329  MEMB      49              0.0000000000
      5530        49  SOPE      C314           -2.1356994210       28.7995419718        1.1628848646  MEMB      49              0.0000000000
      5531        49  SOPE      H14X           -1.8476643686       29.5498876013        1.9299160461  MEMB      49              0.0000000000
      5532        49  SOPE      H14Y           -3.1047987744       29.0039050080        0.6594919908  MEMB      49              0.0000000000
      5533        49  SOPE      C315           -1.0003953488       28.6298575583        0.1562281621  MEMB      49              0.0000000000
      5534        49  SOPE      H15X           -0.8463572610       29.6580867480       -0.2353556613  MEMB      49              0.0000000000
      5535        49  SOPE      H15Y           -1.3319776611       28.0112818927       -0.7050147064  MEMB      49              0.0000000000
      5536        49  SOPE      C316            0.3274640978       28.1086482121        0.6344060625  MEMB      49              0.0000000000
      5537        49  SOPE      H16X            1.1102462510       28.2462834534       -0.1418859289  MEMB      49              0.0000000000
      5538        49  SOPE      H16Y            0.1718701983       27.0573155111        0.9581515890  MEMB      49              0.0000000000
      5539        49  SOPE      C317            0.8141952836       29.0041562572        1.8136383160  MEMB      49              0.0000000000
      5540        49  SOPE      H17X            1.7149537158       28.4481623883        2.1510171155  MEMB      49              0.0000000000
      5541        49  SOPE      H17Y            0.1870210803       29.0060368852        2.7306809667  MEMB      49              0.0000000000
      5542        49  SOPE      C318            1.1729406277       30.3938567622        1.5013824405  MEMB      49              0.0000000000
      5543        49  SOPE      H18X            0.2738909740       31.0244998576        1.3331005022  MEMB      49              0.0000000000
      5544        49  SOPE      H18Y            1.9989472163       30.5240776214        0.7698941211  MEMB      49              0.0000000000
      5545        49  SOPE      H18Z            1.5138670326       30.9934829275        2.3723249445  MEMB      49              0.0000000000
      5546        50  CHL1      C3            -26.2000289316      -18.6057809151       17.3824250000  MEMB      50              0.0000000000
      5547        50  CHL1      H3            -26.0800001248      -19.6963492792       17.5572950000  MEMB      50              0.0000000000
      5548        50  CHL1      O3            -26.0582385685      -17.9638479436       18.6175750000  MEMB      50              0.0000000000
      5549        50  CHL1      H3'           -26.7071750503      -18.3796695479       19.1899250000  MEMB      50              0.0000000000
      5550        50  CHL1      C4            -25.0989307823      -18.0022006155       16.4154650000  MEMB      50              0.0000000000
      5551        50  CHL1      H4A           -25.2214771955      -16.9156205038       16.6120650000  MEMB      50              0.0000000000
      5552        50  CHL1      H4B           -24.0926058310      -18.3412228712       16.7421150000  MEMB      50              0.0000000000
      5553        50  CHL1      C5            -25.1956695642      -18.2313015122       14.9587150000  MEMB      50              0.0000000000
      5554        50  CHL1      C6            -24.2062349461      -18.6501797423       14.1253450000  MEMB      50              0.0000000000
      5555        50  CHL1      H6            -23.1783823840      -18.7826978584       14.4940850000  MEMB      50              0.0000000000
      5556        50  CHL1      C7            -24.4196088888      -18.7721484726       12.6746250000  MEMB      50              0.0000000000
      5557        50  CHL1      H7A           -23.5531812800      -18.5285868641       12.0232450000  MEMB      50              0.0000000000
      5558        50  CHL1      H7B           -24.5614108257      -19.8628873224       12.5180850000  MEMB      50              0.0000000000
      5559        50  CHL1      C8            -25.6646564677      -18.0003241003       12.0928350000  MEMB      50              0.0000000000
      5560        50  CHL1      H8            -25.3554213587      -16.9334544838       12.0707150000  MEMB      50              0.0000000000
      5561        50  CHL1      C14           -25.9254982581      -18.5110127891       10.6654850000  MEMB      50              0.0000000000
      5562        50  CHL1      H14           -26.2116188443      -19.5747916712       10.8098550000  MEMB      50              0.0000000000
      5563        50  CHL1      C15           -24.8111928248      -18.4256969042        9.6701150000  MEMB      50              0.0000000000
      5564        50  CHL1      H15A          -24.2826540967      -17.4522170618        9.5846450000  MEMB      50              0.0000000000
      5565        50  CHL1      H15B          -24.1972421213      -19.3165424161        9.9226450000  MEMB      50              0.0000000000
      5566        50  CHL1      C16           -25.5793955448      -18.7567738372        8.2598550000  MEMB      50              0.0000000000
      5567        50  CHL1      H16A          -25.2534734213      -17.9164649604        7.6102550000  MEMB      50              0.0000000000
      5568        50  CHL1      H16B          -25.3329514608      -19.7428984160        7.8113650000  MEMB      50              0.0000000000
      5569        50  CHL1      C17           -27.1314737453      -18.5998586620        8.6159650000  MEMB      50              0.0000000000
      5570        50  CHL1      H17           -27.5476668155      -19.6221571161        8.7424850000  MEMB      50              0.0000000000
      5571        50  CHL1      C13           -27.2162110094      -17.9582935690        9.9949650000  MEMB      50              0.0000000000
      5572        50  CHL1      C18           -26.9635966601      -16.4217276148        9.7700350000  MEMB      50              0.0000000000
      5573        50  CHL1      H18A          -27.9511030783      -16.0414370491        9.4315950000  MEMB      50              0.0000000000
      5574        50  CHL1      H18B          -26.6085794611      -16.0092606696       10.7386150000  MEMB      50              0.0000000000
      5575        50  CHL1      H18C          -26.2123288092      -16.1942433371        8.9837950000  MEMB      50              0.0000000000
      5576        50  CHL1      C12           -28.4834808480      -18.1982012788       10.8955650000  MEMB      50              0.0000000000
      5577        50  CHL1      H12A          -29.3612110387      -17.7049661676       10.4258550000  MEMB      50              0.0000000000
      5578        50  CHL1      H12B          -28.6559012995      -19.2949017700       10.9382750000  MEMB      50              0.0000000000
      5579        50  CHL1      C11           -28.2034634093      -17.7626736127       12.3323750000  MEMB      50              0.0000000000
      5580        50  CHL1      H11A          -28.2344676268      -16.6534087836       12.2785050000  MEMB      50              0.0000000000
      5581        50  CHL1      H11B          -29.0869167493      -18.0419805283       12.9454050000  MEMB      50              0.0000000000
      5582        50  CHL1      C9            -26.8674230351      -18.3242459619       12.9543950000  MEMB      50              0.0000000000
      5583        50  CHL1      H9            -26.9644617723      -19.4309319260       12.9675150000  MEMB      50              0.0000000000
      5584        50  CHL1      C10           -26.5809360960      -17.8496650902       14.4191250000  MEMB      50              0.0000000000
      5585        50  CHL1      C19           -26.8421836434      -16.3049221189       14.5094650000  MEMB      50              0.0000000000
      5586        50  CHL1      H19A          -26.8677350899      -16.1104297723       15.6030050000  MEMB      50              0.0000000000
      5587        50  CHL1      H19B          -26.0816385040      -15.6669357621       14.0106050000  MEMB      50              0.0000000000
      5588        50  CHL1      H19C          -27.8194776226      -15.9271507773       14.1399750000  MEMB      50              0.0000000000
      5589        50  CHL1      C1            -27.7145452283      -18.6108271732       15.3128950000  MEMB      50              0.0000000000
      5590        50  CHL1      H1A           -28.7235972118      -18.2171947106       15.0655450000  MEMB      50              0.0000000000
      5591        50  CHL1      H1B           -27.6998137011      -19.6706139339       14.9797950000  MEMB      50              0.0000000000
      5592        50  CHL1      C2            -27.6339855668      -18.3868955186       16.8339250000  MEMB      50              0.0000000000
      5593        50  CHL1      H2A           -28.4123807273      -19.0320279055       17.2946250000  MEMB      50              0.0000000000
      5594        50  CHL1      H2B           -28.0780775483      -17.3857326955       17.0203950000  MEMB      50              0.0000000000
      5595        50  CHL1      C20           -27.9500144736      -18.1144425567        7.3921450000  MEMB      50              0.0000000000
      5596        50  CHL1      H20           -27.4239686707      -17.1829552650        7.0922550000  MEMB      50              0.0000000000
      5597        50  CHL1      C21           -29.4213778869      -17.8674079534        7.5717250000  MEMB      50              0.0000000000
      5598        50  CHL1      H21A          -29.6577190568      -17.1731644337        8.4062850000  MEMB      50              0.0000000000
      5599        50  CHL1      H21B          -29.8813755091      -18.8293744646        7.8837550000  MEMB      50              0.0000000000
      5600        50  CHL1      H21C          -29.8647164319      -17.3046861419        6.7225450000  MEMB      50              0.0000000000
      5601        50  CHL1      C22           -27.7208575555      -19.0775370792        6.2487150000  MEMB      50              0.0000000000
      5602        50  CHL1      H22A          -26.6566664618      -19.0819127117        5.9296250000  MEMB      50              0.0000000000
      5603        50  CHL1      H22B          -28.0527944263      -20.1195564884        6.4444550000  MEMB      50              0.0000000000
      5604        50  CHL1      C23           -28.3583873593      -18.6357321710        4.8639750000  MEMB      50              0.0000000000
      5605        50  CHL1      H23A          -29.4612861880      -18.6820831809        4.9895550000  MEMB      50              0.0000000000
      5606        50  CHL1      H23B          -27.9346387494      -17.6110304024        4.7949950000  MEMB      50              0.0000000000
      5607        50  CHL1      C24           -27.9423598438      -19.6130776004        3.7570950000  MEMB      50              0.0000000000
      5608        50  CHL1      H24A          -26.8657915642      -19.5918533448        3.4834650000  MEMB      50              0.0000000000
      5609        50  CHL1      H24B          -28.2269562838      -20.6392289251        4.0738850000  MEMB      50              0.0000000000
      5610        50  CHL1      C25           -28.7668787921      -19.3861479870        2.4186350000  MEMB      50              0.0000000000
      5611        50  CHL1      H25           -29.7805982744      -19.6200586354        2.8084950000  MEMB      50              0.0000000000
      5612        50  CHL1      C26           -28.5846139488      -17.9514813568        1.8498050000  MEMB      50              0.0000000000
      5613        50  CHL1      H26A          -29.1780995740      -17.8043022050        0.9222050000  MEMB      50              0.0000000000
      5614        50  CHL1      H26B          -28.9327501318      -17.2395025151        2.6283850000  MEMB      50              0.0000000000
      5615        50  CHL1      H26C          -27.5254558765      -17.6371745161        1.7326450000  MEMB      50              0.0000000000
      5616        50  CHL1      C27           -28.4554001777      -20.3488780720        1.2813350000  MEMB      50              0.0000000000
      5617        50  CHL1      H27A          -28.7707075552      -21.3744123712        1.5697650000  MEMB      50              0.0000000000
      5618        50  CHL1      H27B          -28.9612411344      -20.0451434058        0.3399550000  MEMB      50              0.0000000000
      5619        50  CHL1      H27C          -27.3569240669      -20.4524434322        1.1511350000  MEMB      50              0.0000000000
      5620        51  SAPE      N              28.6555110742       -0.9267308661       18.8616374461  MEMB      51              0.0000000000
      5621        51  SAPE      HN1            29.0442679647        0.0267695431       18.7156746897  MEMB      51              0.0000000000
      5622        51  SAPE      HN2            29.1726191267       -1.6254193879       18.2906439555  MEMB      51              0.0000000000
      5623        51  SAPE      HN3            27.7031330857       -0.9783542942       18.4470158312  MEMB      51              0.0000000000
      5624        51  SAPE      C12            28.7243684717       -1.3250529532       20.2552507661  MEMB      51              0.0000000000
      5625        51  SAPE      H12A           28.3015082527       -2.3246807452       20.4924310442  MEMB      51              0.0000000000
      5626        51  SAPE      H12B           27.9379488283       -0.6775886654       20.6987088467  MEMB      51              0.0000000000
      5627        51  SAPE      C11            30.0785929504       -1.2122852736       20.9415128619  MEMB      51              0.0000000000
      5628        51  SAPE      H11A           29.9353676899       -1.5895017255       21.9766530256  MEMB      51              0.0000000000
      5629        51  SAPE      H11B           30.2967462020       -0.1289501658       21.0560348599  MEMB      51              0.0000000000
      5630        51  SAPE      P              31.3388116748       -3.3317820796       20.0000492499  MEMB      51              0.0000000000
      5631        51  SAPE      O13            31.2991243483       -3.9862195445       21.3344565766  MEMB      51              0.0000000000
      5632        51  SAPE      O14            30.3437832434       -3.8418494182       19.0218458311  MEMB      51              0.0000000000
      5633        51  SAPE      O12            31.1258946485       -1.8100403626       20.1322959351  MEMB      51              0.0000000000
      5634        51  SAPE      O11            32.7805423957       -3.5458218165       19.4529513585  MEMB      51              0.0000000000
      5635        51  SAPE      C1             33.8922663202       -2.7720241133       19.9183905004  MEMB      51              0.0000000000
      5636        51  SAPE      HA             33.5449904347       -1.7734045722       20.2596817385  MEMB      51              0.0000000000
      5637        51  SAPE      HB             34.3339972650       -3.2901587712       20.7963034010  MEMB      51              0.0000000000
      5638        51  SAPE      C2             35.0436237088       -2.8212180202       18.9062248665  MEMB      51              0.0000000000
      5639        51  SAPE      HS             35.9424396728       -2.3806462629       19.3882491913  MEMB      51              0.0000000000
      5640        51  SAPE      O21            34.5648151237       -2.0337692917       17.8042112036  MEMB      51              0.0000000000
      5641        51  SAPE      C21            34.9402684272       -0.7599695816       17.7073422405  MEMB      51              0.0000000000
      5642        51  SAPE      O22            35.6203988734       -0.1852551208       18.5235351014  MEMB      51              0.0000000000
      5643        51  SAPE      C22            34.2549828236       -0.1539897932       16.4469194387  MEMB      51              0.0000000000
      5644        51  SAPE      H2R            34.9215587082        0.4752387908       15.8191702341  MEMB      51              0.0000000000
      5645        51  SAPE      H2S            33.9314385728       -1.0395462801       15.8591865212  MEMB      51              0.0000000000
      5646        51  SAPE      C3             35.3209477001       -4.2796883011       18.4562374399  MEMB      51              0.0000000000
      5647        51  SAPE      HX             35.4984622924       -4.8677054202       19.3820049214  MEMB      51              0.0000000000
      5648        51  SAPE      HY             36.2772135882       -4.3555559840       17.8957731337  MEMB      51              0.0000000000
      5649        51  SAPE      O31            34.2580141313       -4.8717443924       17.7629992538  MEMB      51              0.0000000000
      5650        51  SAPE      C31            34.3929766022       -5.0875090051       16.4613539385  MEMB      51              0.0000000000
      5651        51  SAPE      O32            35.3985961389       -4.8958858344       15.7798455145  MEMB      51              0.0000000000
      5652        51  SAPE      C32            33.1317472765       -5.7391147821       15.9837308582  MEMB      51              0.0000000000
      5653        51  SAPE      H2X            32.6736575711       -6.3983331691       16.7517841327  MEMB      51              0.0000000000
      5654        51  SAPE      H2Y            33.3355172424       -6.3107537015       15.0531243474  MEMB      51              0.0000000000
      5655        51  SAPE      C23            32.9770539106        0.6480976228       16.8207881074  MEMB      51              0.0000000000
      5656        51  SAPE      H3R            33.2986627878        1.5660276307       17.3577172861  MEMB      51              0.0000000000
      5657        51  SAPE      H3S            32.4072483323        0.2107122839       17.6683355968  MEMB      51              0.0000000000
      5658        51  SAPE      C24            32.0864547591        1.0358580967       15.6585573378  MEMB      51              0.0000000000
      5659        51  SAPE      H4R            31.2101596612        1.5557847886       16.1013931275  MEMB      51              0.0000000000
      5660        51  SAPE      H4S            31.6795219435        0.0989865763       15.2215237350  MEMB      51              0.0000000000
      5661        51  SAPE      C25            32.7210883382        1.8602405619       14.6189660100  MEMB      51              0.0000000000
      5662        51  SAPE      H5R            32.8136231688        2.9201166461       14.8984298771  MEMB      51              0.0000000000
      5663        51  SAPE      C26            33.3125112155        1.4010177533       13.4894559142  MEMB      51              0.0000000000
      5664        51  SAPE      H6R            33.7876984508        2.1387579040       12.8261783028  MEMB      51              0.0000000000
      5665        51  SAPE      C27            33.4788941865        0.0187316382       13.0190343813  MEMB      51              0.0000000000
      5666        51  SAPE      H7R            32.7363790610       -0.6146024743       13.5499587175  MEMB      51              0.0000000000
      5667        51  SAPE      H7S            34.4706132438       -0.3620365224       13.3443494767  MEMB      51              0.0000000000
      5668        51  SAPE      C28            33.3818469405        0.0395518056       11.4711489169  MEMB      51              0.0000000000
      5669        51  SAPE      H8R            32.3305889012        0.2490110222       11.2242007825  MEMB      51              0.0000000000
      5670        51  SAPE      C29            34.3124242236       -0.3819625717       10.5569642020  MEMB      51              0.0000000000
      5671        51  SAPE      H9R            33.9618498071       -0.4701270846        9.5180587634  MEMB      51              0.0000000000
      5672        51  SAPE      C210           35.6905160585       -0.9047670842       10.7974386842  MEMB      51              0.0000000000
      5673        51  SAPE      H10R           36.2646673828       -0.3085180346       11.5384906943  MEMB      51              0.0000000000
      5674        51  SAPE      H10S           36.2948546854       -0.7613131512        9.8762887439  MEMB      51              0.0000000000
      5675        51  SAPE      C211           35.7831791288       -2.3387435670       11.2551855302  MEMB      51              0.0000000000
      5676        51  SAPE      H11R           36.1220715816       -2.5024380191       12.2887992872  MEMB      51              0.0000000000
      5677        51  SAPE      C212           35.4474617802       -3.3841470139       10.4317973018  MEMB      51              0.0000000000
      5678        51  SAPE      H12R           35.4374916034       -4.4063824890       10.8379196794  MEMB      51              0.0000000000
      5679        51  SAPE      C213           35.0289694910       -3.1675101509        8.9876685550  MEMB      51              0.0000000000
      5680        51  SAPE      H13R           35.5592375505       -2.3197621253        8.5034583681  MEMB      51              0.0000000000
      5681        51  SAPE      H13S           33.9622231513       -2.8577884505        8.9665564932  MEMB      51              0.0000000000
      5682        51  SAPE      C214           35.1748719658       -4.4272055238        8.1260932875  MEMB      51              0.0000000000
      5683        51  SAPE      H14R           35.6283186696       -5.3227412055        8.5759842382  MEMB      51              0.0000000000
      5684        51  SAPE      C215           34.8597638785       -4.4928577152        6.8287088435  MEMB      51              0.0000000000
      5685        51  SAPE      H15R           35.1237594868       -5.4213038082        6.3011727562  MEMB      51              0.0000000000
      5686        51  SAPE      C216           34.2591117702       -3.4222434576        5.9360753817  MEMB      51              0.0000000000
      5687        51  SAPE      H16R           33.7937648500       -2.6840240547        6.6236837769  MEMB      51              0.0000000000
      5688        51  SAPE      H16S           33.5368367876       -3.8735163391        5.2226382054  MEMB      51              0.0000000000
      5689        51  SAPE      C217           35.2269158124       -2.6443309094        4.9345312432  MEMB      51              0.0000000000
      5690        51  SAPE      H17R           35.6124930638       -3.3433257131        4.1618368381  MEMB      51              0.0000000000
      5691        51  SAPE      H17S           35.9165844195       -2.1594649177        5.6581217551  MEMB      51              0.0000000000
      5692        51  SAPE      C218           34.3934723940       -1.5013018009        4.2346034565  MEMB      51              0.0000000000
      5693        51  SAPE      H18R           33.7908154642       -1.0666321358        5.0605504202  MEMB      51              0.0000000000
      5694        51  SAPE      H18S           33.6219073259       -1.9327036390        3.5616242697  MEMB      51              0.0000000000
      5695        51  SAPE      C219           35.3765345489       -0.5322035101        3.5032950057  MEMB      51              0.0000000000
      5696        51  SAPE      H19R           36.0449759193       -1.2341591850        2.9603706675  MEMB      51              0.0000000000
      5697        51  SAPE      H19S           36.0036601264       -0.1394337003        4.3320085011  MEMB      51              0.0000000000
      5698        51  SAPE      C220           34.9689366624        0.6655534145        2.5835830915  MEMB      51              0.0000000000
      5699        51  SAPE      H20R           34.5353773502        0.3108755833        1.6241286293  MEMB      51              0.0000000000
      5700        51  SAPE      H20S           35.9624383527        1.0625522266        2.2841386819  MEMB      51              0.0000000000
      5701        51  SAPE      H20T           34.3979151861        1.4626051798        3.1060429301  MEMB      51              0.0000000000
      5702        51  SAPE      C33            32.1403823344       -4.5403689109       15.7984224439  MEMB      51              0.0000000000
      5703        51  SAPE      H3X            32.5088134165       -3.7387272776       15.1231812675  MEMB      51              0.0000000000
      5704        51  SAPE      H3Y            32.0476216510       -4.0580577172       16.7949625125  MEMB      51              0.0000000000
      5705        51  SAPE      C34            30.7276505942       -4.9511331369       15.3365682296  MEMB      51              0.0000000000
      5706        51  SAPE      H4X            30.3998383379       -5.6925517865       16.0962777198  MEMB      51              0.0000000000
      5707        51  SAPE      H4Y            30.7296448012       -5.4162054074       14.3275963121  MEMB      51              0.0000000000
      5708        51  SAPE      C35            29.8788649273       -3.7421257189       15.3617844300  MEMB      51              0.0000000000
      5709        51  SAPE      H5X            30.0009683311       -3.1672341477       16.3046052999  MEMB      51              0.0000000000
      5710        51  SAPE      H5Y            28.7870010028       -3.9391865842       15.4194147862  MEMB      51              0.0000000000
      5711        51  SAPE      C36            30.1615963945       -2.9238935220       14.0886851293  MEMB      51              0.0000000000
      5712        51  SAPE      H6X            31.1025298845       -3.2375086367       13.5880745768  MEMB      51              0.0000000000
      5713        51  SAPE      H6Y            30.3472826817       -1.8682368912       14.3809700281  MEMB      51              0.0000000000
      5714        51  SAPE      C37            28.9961750487       -3.0854260451       13.1238482255  MEMB      51              0.0000000000
      5715        51  SAPE      H7X            28.2023444475       -2.3677666959       13.4223763061  MEMB      51              0.0000000000
      5716        51  SAPE      H7Y            28.6548826836       -4.1418351419       13.1667506623  MEMB      51              0.0000000000
      5717        51  SAPE      C38            29.4530420965       -2.9027722342       11.6396050836  MEMB      51              0.0000000000
      5718        51  SAPE      H8X            29.9094779574       -3.8355743931       11.2448049027  MEMB      51              0.0000000000
      5719        51  SAPE      H8Y            30.2277624092       -2.1079260812       11.5911387049  MEMB      51              0.0000000000
      5720        51  SAPE      C39            28.2421653357       -2.5349255329       10.8199082132  MEMB      51              0.0000000000
      5721        51  SAPE      H9X            27.8651959461       -1.5867182775       11.2593604342  MEMB      51              0.0000000000
      5722        51  SAPE      H9Y            27.5298463693       -3.3543015972       11.0555885548  MEMB      51              0.0000000000
      5723        51  SAPE      C310           28.5029875640       -2.3038896064        9.3733208517  MEMB      51              0.0000000000
      5724        51  SAPE      H10X           29.3282119037       -1.5681512922        9.2637094855  MEMB      51              0.0000000000
      5725        51  SAPE      H10Y           27.5910782729       -1.8560736863        8.9236509263  MEMB      51              0.0000000000
      5726        51  SAPE      C311           28.8565515291       -3.6193951594        8.6912970838  MEMB      51              0.0000000000
      5727        51  SAPE      H11X           28.0235182699       -4.3303510112        8.5044321820  MEMB      51              0.0000000000
      5728        51  SAPE      H11Y           29.5106660866       -4.2246987559        9.3546690002  MEMB      51              0.0000000000
      5729        51  SAPE      C312           29.7252983151       -3.5706868351        7.4017513131  MEMB      51              0.0000000000
      5730        51  SAPE      H12X           30.0905767170       -4.5679917199        7.0757510721  MEMB      51              0.0000000000
      5731        51  SAPE      H12Y           30.5573372226       -2.8663393341        7.6160568887  MEMB      51              0.0000000000
      5732        51  SAPE      C313           29.0947693456       -3.0442916568        6.1035432760  MEMB      51              0.0000000000
      5733        51  SAPE      H13X           28.7838218400       -2.0104082253        6.3656835570  MEMB      51              0.0000000000
      5734        51  SAPE      H13Y           28.1653919235       -3.6170329643        5.8972757928  MEMB      51              0.0000000000
      5735        51  SAPE      C314           30.0475334520       -2.9806968721        4.8832231336  MEMB      51              0.0000000000
      5736        51  SAPE      H14X           30.1866363705       -4.0511177799        4.6202205333  MEMB      51              0.0000000000
      5737        51  SAPE      H14Y           31.0278803788       -2.5032535731        5.0960349918  MEMB      51              0.0000000000
      5738        51  SAPE      C315           29.4260737893       -2.3053416642        3.6005892459  MEMB      51              0.0000000000
      5739        51  SAPE      H15X           28.6350542676       -1.6430419004        4.0128614832  MEMB      51              0.0000000000
      5740        51  SAPE      H15Y           28.8425382499       -3.0295339119        2.9928456221  MEMB      51              0.0000000000
      5741        51  SAPE      C316           30.3369976524       -1.4902551357        2.7071463993  MEMB      51              0.0000000000
      5742        51  SAPE      H16X           31.2314316936       -2.0881400798        2.4299436434  MEMB      51              0.0000000000
      5743        51  SAPE      H16Y           30.6986426089       -0.6259375659        3.3042140334  MEMB      51              0.0000000000
      5744        51  SAPE      C317           29.6428378246       -0.9481057098        1.4680712272  MEMB      51              0.0000000000
      5745        51  SAPE      H17X           28.7588400414       -0.3518054701        1.7799932711  MEMB      51              0.0000000000
      5746        51  SAPE      H17Y           29.2066266943       -1.7661935021        0.8558842820  MEMB      51              0.0000000000
      5747        51  SAPE      C318           30.4844958009       -0.0556051857        0.5329212643  MEMB      51              0.0000000000
      5748        51  SAPE      H18X           31.5021545858       -0.4781954785        0.3911165552  MEMB      51              0.0000000000
      5749        51  SAPE      H18Y           30.4979626732        0.9274908010        1.0502825342  MEMB      51              0.0000000000
      5750        51  SAPE      H18Z           30.0148955476        0.0063962238       -0.4720418619  MEMB      51              0.0000000000
      5751        52  CHL1      C3             -4.8235201083      -30.1565677023       17.3231100000  MEMB      52              0.0000000000
      5752        52  CHL1      H3             -5.7440014138      -29.5511308123       17.1799800000  MEMB      52              0.0000000000
      5753        52  CHL1      O3             -4.5765911917      -30.4221072977       18.6768900000  MEMB      52              0.0000000000
      5754        52  CHL1      H3'            -4.6528243488      -29.5487657341       19.0681100000  MEMB      52              0.0000000000
      5755        52  CHL1      C4             -5.0696273938      -31.5185728410       16.6201100000  MEMB      52              0.0000000000
      5756        52  CHL1      H4A            -4.1954471200      -32.1488388764       16.8901200000  MEMB      52              0.0000000000
      5757        52  CHL1      H4B            -5.8534464215      -32.1358341480       17.1089200000  MEMB      52              0.0000000000
      5758        52  CHL1      C5             -5.1779213316      -31.3980078111       15.1418000000  MEMB      52              0.0000000000
      5759        52  CHL1      C6             -6.2901871462      -31.9093317340       14.5464900000  MEMB      52              0.0000000000
      5760        52  CHL1      H6             -7.0586338625      -32.4714668535       15.0974000000  MEMB      52              0.0000000000
      5761        52  CHL1      C7             -6.4426364952      -31.8334962542       13.0226100000  MEMB      52              0.0000000000
      5762        52  CHL1      H7A            -6.8324310307      -32.8096856192       12.6628400000  MEMB      52              0.0000000000
      5763        52  CHL1      H7B            -7.2054099035      -31.0952715780       12.6947000000  MEMB      52              0.0000000000
      5764        52  CHL1      C8             -5.1236043328      -31.4574041320       12.3135500000  MEMB      52              0.0000000000
      5765        52  CHL1      H8             -4.5131351682      -32.3839260335       12.3703000000  MEMB      52              0.0000000000
      5766        52  CHL1      C14            -5.3816680604      -31.1750751535       10.8610900000  MEMB      52              0.0000000000
      5767        52  CHL1      H14            -6.0137017934      -30.2623784170       10.8181500000  MEMB      52              0.0000000000
      5768        52  CHL1      C15            -6.1657517370      -32.2220095857       10.1323300000  MEMB      52              0.0000000000
      5769        52  CHL1      H15A           -5.7400557523      -33.2352105695       10.2952000000  MEMB      52              0.0000000000
      5770        52  CHL1      H15B           -7.2508068272      -32.2804194666       10.3637900000  MEMB      52              0.0000000000
      5771        52  CHL1      C16            -6.0027015418      -31.7259988548        8.6651200000  MEMB      52              0.0000000000
      5772        52  CHL1      H16A           -5.5526857806      -32.5964288329        8.1415200000  MEMB      52              0.0000000000
      5773        52  CHL1      H16B           -6.8920399872      -31.3983241854        8.0854400000  MEMB      52              0.0000000000
      5774        52  CHL1      C17            -4.8345316693      -30.6125876581        8.5317500000  MEMB      52              0.0000000000
      5775        52  CHL1      H17            -5.2852553969      -29.5979289069        8.4909800000  MEMB      52              0.0000000000
      5776        52  CHL1      C13            -4.1458480279      -30.7632380928        9.9731100000  MEMB      52              0.0000000000
      5777        52  CHL1      C18            -3.1684332422      -31.9402696741        9.9446300000  MEMB      52              0.0000000000
      5778        52  CHL1      H18A           -2.2990646494      -31.7340433418        9.2843400000  MEMB      52              0.0000000000
      5779        52  CHL1      H18B           -2.6939105962      -32.2293036620       10.9067100000  MEMB      52              0.0000000000
      5780        52  CHL1      H18C           -3.7280165788      -32.8384590499        9.6063400000  MEMB      52              0.0000000000
      5781        52  CHL1      C12            -3.5042011944      -29.5012607698       10.6521600000  MEMB      52              0.0000000000
      5782        52  CHL1      H12A           -2.5882816585      -29.1746384566       10.1148300000  MEMB      52              0.0000000000
      5783        52  CHL1      H12B           -4.2573898392      -28.7000776977       10.4936400000  MEMB      52              0.0000000000
      5784        52  CHL1      C11            -3.2019412817      -29.6815033255       12.1496200000  MEMB      52              0.0000000000
      5785        52  CHL1      H11A           -2.3727138786      -30.4157226332       12.2369300000  MEMB      52              0.0000000000
      5786        52  CHL1      H11B           -2.7592237755      -28.8120344822       12.6809900000  MEMB      52              0.0000000000
      5787        52  CHL1      C9             -4.4179811507      -30.3126396774       12.9553900000  MEMB      52              0.0000000000
      5788        52  CHL1      H9             -5.2065285850      -29.5302697524       12.9751200000  MEMB      52              0.0000000000
      5789        52  CHL1      C10            -4.0256212133      -30.6095466957       14.4744400000  MEMB      52              0.0000000000
      5790        52  CHL1      C19            -2.7812144006      -31.4708077273       14.4294900000  MEMB      52              0.0000000000
      5791        52  CHL1      H19A           -2.7671500813      -32.2785464312       13.6668200000  MEMB      52              0.0000000000
      5792        52  CHL1      H19B           -1.9310588047      -30.7848604456       14.2269100000  MEMB      52              0.0000000000
      5793        52  CHL1      H19C           -2.4902606477      -31.8144139057       15.4451700000  MEMB      52              0.0000000000
      5794        52  CHL1      C1             -3.7048505013      -29.3154000218       15.1519600000  MEMB      52              0.0000000000
      5795        52  CHL1      H1A            -2.9048617454      -28.7308793301       14.6492900000  MEMB      52              0.0000000000
      5796        52  CHL1      H1B            -4.6048600005      -28.6953389856       14.9524000000  MEMB      52              0.0000000000
      5797        52  CHL1      C2             -3.6282197406      -29.3619793489       16.6835000000  MEMB      52              0.0000000000
      5798        52  CHL1      H2A            -3.8910811892      -28.3608633492       17.0872200000  MEMB      52              0.0000000000
      5799        52  CHL1      H2B            -2.6977151802      -29.8967201545       16.9707900000  MEMB      52              0.0000000000
      5800        52  CHL1      C20            -3.9931188631      -30.7838455162        7.1944500000  MEMB      52              0.0000000000
      5801        52  CHL1      H20            -3.6592058170      -31.8420464719        7.1392800000  MEMB      52              0.0000000000
      5802        52  CHL1      C21            -2.7665284890      -29.8687288570        7.1260600000  MEMB      52              0.0000000000
      5803        52  CHL1      H21A           -2.6114366711      -29.5292553918        6.0796200000  MEMB      52              0.0000000000
      5804        52  CHL1      H21B           -1.9090163719      -30.4969921311        7.4489700000  MEMB      52              0.0000000000
      5805        52  CHL1      H21C           -2.8062187068      -28.9643940154        7.7702000000  MEMB      52              0.0000000000
      5806        52  CHL1      C22            -4.8891611238      -30.5898319290        5.9836500000  MEMB      52              0.0000000000
      5807        52  CHL1      H22A           -5.9000816623      -30.9172612761        6.3079400000  MEMB      52              0.0000000000
      5808        52  CHL1      H22B           -4.9812407827      -29.4886676473        5.8684400000  MEMB      52              0.0000000000
      5809        52  CHL1      C23            -4.5889307536      -31.3196473310        4.6736000000  MEMB      52              0.0000000000
      5810        52  CHL1      H23A           -3.5155702141      -31.1392929644        4.4506600000  MEMB      52              0.0000000000
      5811        52  CHL1      H23B           -4.6600096728      -32.4207695932        4.8031600000  MEMB      52              0.0000000000
      5812        52  CHL1      C24            -5.1827956698      -30.7159360827        3.3932000000  MEMB      52              0.0000000000
      5813        52  CHL1      H24A           -6.2852598797      -30.6330217515        3.5028900000  MEMB      52              0.0000000000
      5814        52  CHL1      H24B           -4.9011041540      -29.6413657823        3.4095600000  MEMB      52              0.0000000000
      5815        52  CHL1      C25            -4.7664814373      -31.4847518361        2.0497800000  MEMB      52              0.0000000000
      5816        52  CHL1      H25            -5.3337248233      -32.4368110888        1.9714700000  MEMB      52              0.0000000000
      5817        52  CHL1      C26            -5.3208058894      -30.7051960932        0.8248800000  MEMB      52              0.0000000000
      5818        52  CHL1      H26A           -6.4311521778      -30.7406509444        0.8110700000  MEMB      52              0.0000000000
      5819        52  CHL1      H26B           -4.8610993320      -29.6938754645        0.8397700000  MEMB      52              0.0000000000
      5820        52  CHL1      H26C           -4.9725390568      -31.2390831635       -0.0850600000  MEMB      52              0.0000000000
      5821        52  CHL1      C27            -3.2440723779      -31.7731717108        1.8982400000  MEMB      52              0.0000000000
      5822        52  CHL1      H27A           -3.0337818097      -32.4650526928        2.7416800000  MEMB      52              0.0000000000
      5823        52  CHL1      H27B           -2.9440157996      -32.3494736072        0.9970400000  MEMB      52              0.0000000000
      5824        52  CHL1      H27C           -2.5746157536      -30.8877192125        1.9443000000  MEMB      52              0.0000000000
      5825        53  OSM       N             -25.5594797492       13.5066728138       19.8945867414  MEMB      53              0.0000000000
      5826        53  OSM       C15           -26.5826102582       13.8394621840       18.8784971046  MEMB      53              0.0000000000
      5827        53  OSM       H15A          -27.5878965141       13.7014201326       19.2482861650  MEMB      53              0.0000000000
      5828        53  OSM       H15B          -26.4690713389       13.1918441990       18.0217006559  MEMB      53              0.0000000000
      5829        53  OSM       H15C          -26.5413018947       14.8729655704       18.5677487405  MEMB      53              0.0000000000
      5830        53  OSM       C14           -25.7548464386       12.0370330298       20.2214928249  MEMB      53              0.0000000000
      5831        53  OSM       H14A          -25.6611671710       11.3871593957       19.3640032052  MEMB      53              0.0000000000
      5832        53  OSM       H14B          -26.6309818003       11.7785286523       20.7976546250  MEMB      53              0.0000000000
      5833        53  OSM       H14C          -24.9345045425       11.7038377787       20.8398939960  MEMB      53              0.0000000000
      5834        53  OSM       C13           -24.2205781860       13.7086439502       19.1951803722  MEMB      53              0.0000000000
      5835        53  OSM       H13A          -24.2041871464       14.7686717464       18.9890919291  MEMB      53              0.0000000000
      5836        53  OSM       H13B          -24.1394985371       13.3462945800       18.1810162021  MEMB      53              0.0000000000
      5837        53  OSM       H13C          -23.3372580749       13.5168442048       19.7862462998  MEMB      53              0.0000000000
      5838        53  OSM       C12           -25.5882023049       14.5022368788       21.0393267231  MEMB      53              0.0000000000
      5839        53  OSM       H12A          -25.5624174124       15.5145740135       20.6639485900  MEMB      53              0.0000000000
      5840        53  OSM       H12B          -24.6778104458       14.3495661620       21.5999322676  MEMB      53              0.0000000000
      5841        53  OSM       C11           -26.7747553385       14.4973439986       22.0273104703  MEMB      53              0.0000000000
      5842        53  OSM       H11A          -26.7283325846       15.3463355422       22.7424183212  MEMB      53              0.0000000000
      5843        53  OSM       H11B          -26.8843755335       13.5382087790       22.5771868861  MEMB      53              0.0000000000
      5844        53  OSM       P             -29.3263211492       14.4400847166       21.9832864701  MEMB      53              0.0000000000
      5845        53  OSM       O13           -30.0119377661       13.1860159316       21.6331096761  MEMB      53              0.0000000000
      5846        53  OSM       O14           -29.0317959660       14.7515510117       23.4308672459  MEMB      53              0.0000000000
      5847        53  OSM       O11           -30.2051313115       15.7319693563       21.4552603075  MEMB      53              0.0000000000
      5848        53  OSM       O12           -27.9322881301       14.5858700325       21.2410820387  MEMB      53              0.0000000000
      5849        53  OSM       C1S           -29.7422582188       16.6900861234       20.4706227933  MEMB      53              0.0000000000
      5850        53  OSM       H1S           -28.7222089526       17.0136359930       20.7691789766  MEMB      53              0.0000000000
      5851        53  OSM       H1T           -30.4377562815       17.5558906838       20.5020231058  MEMB      53              0.0000000000
      5852        53  OSM       NF            -29.0674750229       17.0209302064       18.1698011063  MEMB      53              0.0000000000
      5853        53  OSM       HNF           -29.7138755516       17.3259561034       17.4747220623  MEMB      53              0.0000000000
      5854        53  OSM       C2S           -29.6785606069       16.0675770097       19.0255943023  MEMB      53              0.0000000000
      5855        53  OSM       H2S           -29.1310991712       15.1015375832       19.0626702395  MEMB      53              0.0000000000
      5856        53  OSM       C3S           -31.0195484351       15.6331050424       18.3704498569  MEMB      53              0.0000000000
      5857        53  OSM       H3S           -31.6803744830       16.5260468898       18.3535827541  MEMB      53              0.0000000000
      5858        53  OSM       O3            -31.5086668141       14.5442613544       19.1224278673  MEMB      53              0.0000000000
      5859        53  OSM       HO3           -30.7725068257       14.4418880873       19.7300363680  MEMB      53              0.0000000000
      5860        53  OSM       C4S           -30.9496949419       15.1332992254       16.9821855488  MEMB      53              0.0000000000
      5861        53  OSM       H4S           -30.6194564466       14.0845890865       16.9482783648  MEMB      53              0.0000000000
      5862        53  OSM       C5S           -31.1997755348       15.7395445025       15.7958381338  MEMB      53              0.0000000000
      5863        53  OSM       H5S           -31.6549702208       16.7368325929       15.8864690019  MEMB      53              0.0000000000
      5864        53  OSM       C6S           -31.0692762316       15.0028398091       14.4913843460  MEMB      53              0.0000000000
      5865        53  OSM       H6S           -30.3802794753       15.5541253400       13.8163370525  MEMB      53              0.0000000000
      5866        53  OSM       H6T           -32.0748438739       15.1128361017       14.0319768383  MEMB      53              0.0000000000
      5867        53  OSM       C7S           -30.4251590399       13.5564422574       14.4859288265  MEMB      53              0.0000000000
      5868        53  OSM       H7S           -30.9835611900       12.8385968057       15.1240555719  MEMB      53              0.0000000000
      5869        53  OSM       H7T           -29.4229369707       13.6488127316       14.9563961034  MEMB      53              0.0000000000
      5870        53  OSM       C8S           -30.0437158941       12.9182725394       13.1200969666  MEMB      53              0.0000000000
      5871        53  OSM       H8S           -29.5205533598       11.9747243444       13.3853110173  MEMB      53              0.0000000000
      5872        53  OSM       H8T           -29.3030983879       13.5630893346       12.6004638864  MEMB      53              0.0000000000
      5873        53  OSM       C9S           -31.1282413468       12.6810015049       12.0418416583  MEMB      53              0.0000000000
      5874        53  OSM       H9S           -32.1169239921       13.1208737473       12.2935147979  MEMB      53              0.0000000000
      5875        53  OSM       H9T           -31.3263006164       11.6209668478       11.7745961494  MEMB      53              0.0000000000
      5876        53  OSM       C10S          -30.6973399805       13.2944920402       10.6844129922  MEMB      53              0.0000000000
      5877        53  OSM       H10S          -31.4514886656       13.0431571126        9.9082613899  MEMB      53              0.0000000000
      5878        53  OSM       H10T          -29.7234645851       12.8766733781       10.3507743196  MEMB      53              0.0000000000
      5879        53  OSM       C11S          -30.4172498399       14.8139189472       10.5956969448  MEMB      53              0.0000000000
      5880        53  OSM       H11S          -29.7408489379       15.1179013222       11.4229799206  MEMB      53              0.0000000000
      5881        53  OSM       H11T          -31.2708584062       15.4880226005       10.8220974761  MEMB      53              0.0000000000
      5882        53  OSM       C12S          -29.8412029910       15.2924964518        9.3081401898  MEMB      53              0.0000000000
      5883        53  OSM       H12S          -30.0854141886       14.5580527348        8.5110985334  MEMB      53              0.0000000000
      5884        53  OSM       H12T          -28.7430600481       15.3449611212        9.4682973539  MEMB      53              0.0000000000
      5885        53  OSM       C13S          -30.4298822291       16.6243863870        8.7972062935  MEMB      53              0.0000000000
      5886        53  OSM       H13S          -29.9131550563       17.4631663248        9.3107842005  MEMB      53              0.0000000000
      5887        53  OSM       H13T          -31.5226889474       16.7720713809        8.9324227309  MEMB      53              0.0000000000
      5888        53  OSM       C14S          -30.2612823579       16.6851387421        7.2296443307  MEMB      53              0.0000000000
      5889        53  OSM       H14S          -30.6788307370       17.6612895538        6.9023768885  MEMB      53              0.0000000000
      5890        53  OSM       H14T          -30.8612782397       15.8926085637        6.7334366386  MEMB      53              0.0000000000
      5891        53  OSM       C15S          -28.8185907612       16.5525888482        6.7042367524  MEMB      53              0.0000000000
      5892        53  OSM       H15S          -28.4111966691       15.5305996100        6.8587988599  MEMB      53              0.0000000000
      5893        53  OSM       H15T          -28.2096384110       17.3368108264        7.2027284256  MEMB      53              0.0000000000
      5894        53  OSM       C16S          -28.7684484452       16.9915941777        5.2440111670  MEMB      53              0.0000000000
      5895        53  OSM       H16S          -28.9784297139       18.0678509397        5.0654037279  MEMB      53              0.0000000000
      5896        53  OSM       H16T          -29.6022339799       16.4472345052        4.7512678997  MEMB      53              0.0000000000
      5897        53  OSM       C17S          -27.4915016704       16.6877880620        4.4218447892  MEMB      53              0.0000000000
      5898        53  OSM       H17S          -27.1896130895       15.6310833798        4.5848146977  MEMB      53              0.0000000000
      5899        53  OSM       H17T          -26.6830524845       17.3366985863        4.8214015370  MEMB      53              0.0000000000
      5900        53  OSM       C18S          -27.7223306260       16.7628290279        2.9100057897  MEMB      53              0.0000000000
      5901        53  OSM       H18S          -27.4676581895       15.7574156737        2.5117519331  MEMB      53              0.0000000000
      5902        53  OSM       H18T          -27.2652817984       17.6478610900        2.4179246652  MEMB      53              0.0000000000
      5903        53  OSM       H18U          -28.8125344391       16.8472347380        2.7134041860  MEMB      53              0.0000000000
      5904        53  OSM       C1F           -27.8178135265       17.4546592992       18.1317776724  MEMB      53              0.0000000000
      5905        53  OSM       OF            -26.9792956491       17.3903551656       19.0389872412  MEMB      53              0.0000000000
      5906        53  OSM       C2F           -27.5387195181       18.1971379691       16.8816300570  MEMB      53              0.0000000000
      5907        53  OSM       H2F           -27.6449568140       19.2420656195       17.2437910022  MEMB      53              0.0000000000
      5908        53  OSM       H2G           -28.3457169368       18.0106814387       16.1411502954  MEMB      53              0.0000000000
      5909        53  OSM       C3F           -26.1108752493       17.8923046021       16.3039987725  MEMB      53              0.0000000000
      5910        53  OSM       H3F           -25.2796602997       18.1294847905       17.0019590430  MEMB      53              0.0000000000
      5911        53  OSM       H3G           -25.9522404863       18.6560044557       15.5128490016  MEMB      53              0.0000000000
      5912        53  OSM       C4F           -25.9981238085       16.4663583075       15.7598605304  MEMB      53              0.0000000000
      5913        53  OSM       H4F           -25.7627329313       15.7642287968       16.5880673533  MEMB      53              0.0000000000
      5914        53  OSM       H4G           -25.0276000528       16.5236202544       15.2221567789  MEMB      53              0.0000000000
      5915        53  OSM       C5F           -26.9818856299       15.9332461513       14.8183363772  MEMB      53              0.0000000000
      5916        53  OSM       H5F           -28.0140457528       15.7229526568       15.1715257486  MEMB      53              0.0000000000
      5917        53  OSM       H5G           -26.6044191749       14.9422626717       14.4869878889  MEMB      53              0.0000000000
      5918        53  OSM       C6F           -27.2295327554       16.7491246245       13.5414566333  MEMB      53              0.0000000000
      5919        53  OSM       H6F           -27.6561842394       17.7618006389       13.7050925267  MEMB      53              0.0000000000
      5920        53  OSM       H6G           -27.9404549456       16.1468944916       12.9362875065  MEMB      53              0.0000000000
      5921        53  OSM       C7F           -25.9232969961       16.9293957369       12.6833284239  MEMB      53              0.0000000000
      5922        53  OSM       H7F           -25.2870792568       16.0208933324       12.6187431898  MEMB      53              0.0000000000
      5923        53  OSM       H7G           -25.3917539755       17.7267374830       13.2454930645  MEMB      53              0.0000000000
      5924        53  OSM       C8F           -26.1606904821       17.3181834327       11.2026465832  MEMB      53              0.0000000000
      5925        53  OSM       H8F           -26.7560455817       18.2547591149       11.1506900625  MEMB      53              0.0000000000
      5926        53  OSM       H8G           -26.8933103586       16.5724146650       10.8265908608  MEMB      53              0.0000000000
      5927        53  OSM       C9F           -24.8810727969       17.3758930597       10.4423610038  MEMB      53              0.0000000000
      5928        53  OSM       H9F           -24.2158890315       18.1802448661       10.7895622182  MEMB      53              0.0000000000
      5929        53  OSM       C10F          -24.3692851423       16.5784000476        9.4836945426  MEMB      53              0.0000000000
      5930        53  OSM       H10F          -23.4840693900       16.9129916994        8.9229437844  MEMB      53              0.0000000000
      5931        53  OSM       C11F          -25.1159869967       15.4061459033        8.9350348561  MEMB      53              0.0000000000
      5932        53  OSM       H11F          -26.1502677826       15.3459487579        9.3362347328  MEMB      53              0.0000000000
      5933        53  OSM       H11G          -24.5168837799       14.5164694906        9.2246427899  MEMB      53              0.0000000000
      5934        53  OSM       C12F          -25.1871155180       15.4630245338        7.4372749106  MEMB      53              0.0000000000
      5935        53  OSM       H12F          -25.5772052465       16.4635996331        7.1526702019  MEMB      53              0.0000000000
      5936        53  OSM       H12G          -25.7344481058       14.5582745851        7.0964299293  MEMB      53              0.0000000000
      5937        53  OSM       C13F          -23.8060740115       15.2922490858        6.7216888958  MEMB      53              0.0000000000
      5938        53  OSM       H13F          -23.2653574683       14.4498119816        7.2036078801  MEMB      53              0.0000000000
      5939        53  OSM       H13G          -23.2204214455       16.2144815527        6.9237271048  MEMB      53              0.0000000000
      5940        53  OSM       C14F          -23.9081891329       15.0921721662        5.2216997974  MEMB      53              0.0000000000
      5941        53  OSM       H14F          -22.9226982693       15.3952604236        4.8078559950  MEMB      53              0.0000000000
      5942        53  OSM       H14G          -24.6555032037       15.7733065729        4.7613744245  MEMB      53              0.0000000000
      5943        53  OSM       C15F          -24.2255623563       13.6128788595        4.8731689836  MEMB      53              0.0000000000
      5944        53  OSM       H15F          -25.2017955429       13.3318321433        5.3229502952  MEMB      53              0.0000000000
      5945        53  OSM       H15G          -23.4660306696       13.1022037016        5.5029658382  MEMB      53              0.0000000000
      5946        53  OSM       C16F          -24.1162335862       13.1441567100        3.3450582805  MEMB      53              0.0000000000
      5947        53  OSM       H16F          -24.1596774956       12.0341600195        3.3265860914  MEMB      53              0.0000000000
      5948        53  OSM       H16G          -23.0624764627       13.4137203265        3.1186687549  MEMB      53              0.0000000000
      5949        53  OSM       C17F          -25.1823537814       13.7111768897        2.4188669189  MEMB      53              0.0000000000
      5950        53  OSM       H17F          -25.1700936933       14.8203216835        2.3558739024  MEMB      53              0.0000000000
      5951        53  OSM       H17G          -26.1512996066       13.5071090176        2.9226752749  MEMB      53              0.0000000000
      5952        53  OSM       C18F          -25.0905903447       13.0890944732        0.9919989274  MEMB      53              0.0000000000
      5953        53  OSM       H18F          -25.8879468942       13.5780059598        0.3924080588  MEMB      53              0.0000000000
      5954        53  OSM       H18G          -25.0225874862       11.9857542933        1.1030728150  MEMB      53              0.0000000000
      5955        53  OSM       H18H          -24.0962756553       13.3723639583        0.5852838152  MEMB      53              0.0000000000
      5956        54  OSM       N              13.4288764547      -27.0271085482       22.2866941573  MEMB      54              0.0000000000
      5957        54  OSM       C15            14.5499310836      -27.3744794000       23.2541109686  MEMB      54              0.0000000000
      5958        54  OSM       H15A           14.7611415874      -26.4811186060       23.8230543225  MEMB      54              0.0000000000
      5959        54  OSM       H15B           15.4951577379      -27.6006992281       22.7831850049  MEMB      54              0.0000000000
      5960        54  OSM       H15C           14.1945928870      -28.1450323880       23.9222297174  MEMB      54              0.0000000000
      5961        54  OSM       C14            13.0658415774      -28.2978420147       21.4768364565  MEMB      54              0.0000000000
      5962        54  OSM       H14A           12.4895435392      -28.0188511225       20.6070981743  MEMB      54              0.0000000000
      5963        54  OSM       H14B           12.5428216500      -29.0584719030       22.0374543050  MEMB      54              0.0000000000
      5964        54  OSM       H14C           13.9465682409      -28.7820263669       21.0815061245  MEMB      54              0.0000000000
      5965        54  OSM       C13            12.1350654333      -26.6589046867       23.0275304022  MEMB      54              0.0000000000
      5966        54  OSM       H13A           11.3141945747      -26.4177487110       22.3684286610  MEMB      54              0.0000000000
      5967        54  OSM       H13B           12.3934457910      -25.7732758318       23.5890474222  MEMB      54              0.0000000000
      5968        54  OSM       H13C           11.7692517163      -27.4349579861       23.6835195522  MEMB      54              0.0000000000
      5969        54  OSM       C12            13.8426063611      -25.8597174406       21.4656271824  MEMB      54              0.0000000000
      5970        54  OSM       H12A           14.4056303766      -25.2980123822       22.1963059223  MEMB      54              0.0000000000
      5971        54  OSM       H12B           12.9174202776      -25.3831027216       21.1770631528  MEMB      54              0.0000000000
      5972        54  OSM       C11            14.8930695808      -26.0307240671       20.3056970522  MEMB      54              0.0000000000
      5973        54  OSM       H11A           15.0864216808      -25.0402966653       19.8409504180  MEMB      54              0.0000000000
      5974        54  OSM       H11B           14.2821353773      -26.6269572185       19.5946510232  MEMB      54              0.0000000000
      5975        54  OSM       P              16.7111939849      -27.9963782057       19.8868123062  MEMB      54              0.0000000000
      5976        54  OSM       O13            18.1297970302      -28.0846775343       20.2924919819  MEMB      54              0.0000000000
      5977        54  OSM       O14            15.8238840198      -29.1637162931       20.0366714459  MEMB      54              0.0000000000
      5978        54  OSM       O11            16.7437996861      -27.6063162353       18.3666210392  MEMB      54              0.0000000000
      5979        54  OSM       O12            16.1018294408      -26.6784716562       20.6009070081  MEMB      54              0.0000000000
      5980        54  OSM       C1S            17.2015283152      -28.5322344401       17.3739895777  MEMB      54              0.0000000000
      5981        54  OSM       H1S            17.7618966924      -29.2960796673       17.9543761643  MEMB      54              0.0000000000
      5982        54  OSM       H1T            17.9618763185      -28.0770685716       16.7039030585  MEMB      54              0.0000000000
      5983        54  OSM       NF             16.8336410711      -29.9691438687       15.5254935914  MEMB      54              0.0000000000
      5984        54  OSM       HNF            16.4689695377      -29.7980650883       14.6134874807  MEMB      54              0.0000000000
      5985        54  OSM       C2S            16.0974258366      -29.3080056920       16.5955364741  MEMB      54              0.0000000000
      5986        54  OSM       H2S            15.5794847440      -30.1191558326       17.1505978269  MEMB      54              0.0000000000
      5987        54  OSM       C3S            15.0317386350      -28.3925534116       16.0455544578  MEMB      54              0.0000000000
      5988        54  OSM       H3S            15.4588200758      -27.7157908938       15.2748959837  MEMB      54              0.0000000000
      5989        54  OSM       O3             14.4163754380      -27.6150540653       17.0228986957  MEMB      54              0.0000000000
      5990        54  OSM       HO3            14.9205112222      -27.7852240959       17.8219539121  MEMB      54              0.0000000000
      5991        54  OSM       C4S            13.9953849932      -29.2517454885       15.2839114761  MEMB      54              0.0000000000
      5992        54  OSM       H4S            13.5609396605      -30.1198973460       15.8011828548  MEMB      54              0.0000000000
      5993        54  OSM       C5S            13.6562340186      -28.9359136713       13.9847642796  MEMB      54              0.0000000000
      5994        54  OSM       H5S            14.1199542303      -28.0728847796       13.4846194637  MEMB      54              0.0000000000
      5995        54  OSM       C6S            12.6951638923      -29.6722511200       13.0951829210  MEMB      54              0.0000000000
      5996        54  OSM       H6S            11.7471423165      -29.0929651583       13.0931913978  MEMB      54              0.0000000000
      5997        54  OSM       H6T            12.3078602085      -30.6429687477       13.4720438797  MEMB      54              0.0000000000
      5998        54  OSM       C7S            13.2436334210      -29.7481823849       11.6646353028  MEMB      54              0.0000000000
      5999        54  OSM       H7S            13.4677968630      -28.7222784601       11.3018783849  MEMB      54              0.0000000000
      6000        54  OSM       H7T            12.4046829163      -30.1540380935       11.0598512535  MEMB      54              0.0000000000
      6001        54  OSM       C8S            14.4448248389      -30.6747855708       11.4405998440  MEMB      54              0.0000000000
      6002        54  OSM       H8S            14.2195199186      -31.5224226651       12.1225603721  MEMB      54              0.0000000000
      6003        54  OSM       H8T            15.3525666779      -30.0994239015       11.7221755941  MEMB      54              0.0000000000
      6004        54  OSM       C9S            14.6307157255      -31.0088115753        9.9020406253  MEMB      54              0.0000000000
      6005        54  OSM       H9S            13.6473402283      -31.4228723548        9.5924478343  MEMB      54              0.0000000000
      6006        54  OSM       H9T            15.4501776024      -31.7460849049        9.7633632189  MEMB      54              0.0000000000
      6007        54  OSM       C10S           15.0391194449      -29.8015422446        9.0805985768  MEMB      54              0.0000000000
      6008        54  OSM       H10S           16.1121484742      -29.6090650685        9.2947996285  MEMB      54              0.0000000000
      6009        54  OSM       H10T           14.4187271750      -28.9161381578        9.3365156752  MEMB      54              0.0000000000
      6010        54  OSM       C11S           14.9988573443      -30.0333064677        7.6077399575  MEMB      54              0.0000000000
      6011        54  OSM       H11S           13.9860317457      -30.3445491859        7.2736241980  MEMB      54              0.0000000000
      6012        54  OSM       H11T           15.6860467930      -30.8169187452        7.2229761289  MEMB      54              0.0000000000
      6013        54  OSM       C12S           15.4785843665      -28.8313755091        6.7704351305  MEMB      54              0.0000000000
      6014        54  OSM       H12S           16.5132023919      -28.5747887078        7.0835641346  MEMB      54              0.0000000000
      6015        54  OSM       H12T           14.7662287096      -27.9788249496        6.7757193377  MEMB      54              0.0000000000
      6016        54  OSM       C13S           15.7779730228      -29.1571320207        5.2882285046  MEMB      54              0.0000000000
      6017        54  OSM       H13S           16.0358937735      -30.2374950894        5.2634600718  MEMB      54              0.0000000000
      6018        54  OSM       H13T           16.5473476213      -28.4871142216        4.8483879143  MEMB      54              0.0000000000
      6019        54  OSM       C14S           14.4463860198      -29.0723521076        4.4555044193  MEMB      54              0.0000000000
      6020        54  OSM       H14S           14.1344010964      -28.0124385804        4.5719931813  MEMB      54              0.0000000000
      6021        54  OSM       H14T           13.7338779491      -29.8202466485        4.8645363841  MEMB      54              0.0000000000
      6022        54  OSM       C15S           14.6120282468      -29.4553264177        2.9846383777  MEMB      54              0.0000000000
      6023        54  OSM       H15S           14.9267286889      -30.5196657276        2.9349779272  MEMB      54              0.0000000000
      6024        54  OSM       H15T           15.4274860164      -28.8377819662        2.5510625983  MEMB      54              0.0000000000
      6025        54  OSM       C16S           13.2497453602      -29.2348240494        2.2179299889  MEMB      54              0.0000000000
      6026        54  OSM       H16S           13.0411742063      -28.1513218405        2.3477066342  MEMB      54              0.0000000000
      6027        54  OSM       H16T           12.5425657064      -29.9470390184        2.6943422644  MEMB      54              0.0000000000
      6028        54  OSM       C17S           13.4349513597      -29.5041432384        0.7373288738  MEMB      54              0.0000000000
      6029        54  OSM       H17S           13.7496820619      -30.5456386548        0.5124906035  MEMB      54              0.0000000000
      6030        54  OSM       H17T           14.3514366221      -28.9755156322        0.3983179471  MEMB      54              0.0000000000
      6031        54  OSM       C18S           12.2089601423      -29.1232174504       -0.1538601563  MEMB      54              0.0000000000
      6032        54  OSM       H18S           11.5906855315      -30.0280964858       -0.3362094875  MEMB      54              0.0000000000
      6033        54  OSM       H18T           12.5326180124      -28.8624028581       -1.1841700503  MEMB      54              0.0000000000
      6034        54  OSM       H18U           11.7302144221      -28.3267834534        0.4550871465  MEMB      54              0.0000000000
      6035        54  OSM       C1F            17.8000318471      -30.9116018733       15.7097058102  MEMB      54              0.0000000000
      6036        54  OSM       OF             18.0102307738      -31.4439600596       16.8238777209  MEMB      54              0.0000000000
      6037        54  OSM       C2F            18.4179248873      -31.4136480639       14.4279435111  MEMB      54              0.0000000000
      6038        54  OSM       H2F            17.9336239126      -32.3551242665       14.0911994922  MEMB      54              0.0000000000
      6039        54  OSM       H2G            19.4685401754      -31.7309878464       14.6006413567  MEMB      54              0.0000000000
      6040        54  OSM       C3F            18.4478524457      -30.3727879027       13.2020071025  MEMB      54              0.0000000000
      6041        54  OSM       H3F            18.7490308309      -29.3458107054       13.5002188093  MEMB      54              0.0000000000
      6042        54  OSM       H3G            17.4660110831      -30.3427711594       12.6829622105  MEMB      54              0.0000000000
      6043        54  OSM       C4F            19.5286262329      -30.7961134264       12.1352112858  MEMB      54              0.0000000000
      6044        54  OSM       H4F            19.6188396524      -31.9015382270       12.2001575400  MEMB      54              0.0000000000
      6045        54  OSM       H4G            20.5400758317      -30.4811588440       12.4700152819  MEMB      54              0.0000000000
      6046        54  OSM       C5F            19.1338714717      -30.2105660453       10.7119179686  MEMB      54              0.0000000000
      6047        54  OSM       H5F            18.0866008207      -30.4529590825       10.4312205523  MEMB      54              0.0000000000
      6048        54  OSM       H5G            19.7322067557      -30.6628183182        9.8922934713  MEMB      54              0.0000000000
      6049        54  OSM       C6F            19.2298458243      -28.6918748973       10.6524765821  MEMB      54              0.0000000000
      6050        54  OSM       H6F            20.1466242486      -28.2620384588       11.1097283619  MEMB      54              0.0000000000
      6051        54  OSM       H6G            18.3596773581      -28.1658387063       11.1001523810  MEMB      54              0.0000000000
      6052        54  OSM       C7F            19.3982222271      -28.3048798817        9.2063343082  MEMB      54              0.0000000000
      6053        54  OSM       H7F            18.4432888815      -28.6283098067        8.7396265039  MEMB      54              0.0000000000
      6054        54  OSM       H7G            20.2513082463      -28.9128211716        8.8362369582  MEMB      54              0.0000000000
      6055        54  OSM       C8F            19.5193679161      -26.7670826220        8.9442685632  MEMB      54              0.0000000000
      6056        54  OSM       H8F            19.6060966889      -26.5231232080        7.8638591391  MEMB      54              0.0000000000
      6057        54  OSM       H8G            20.3931256688      -26.3980859431        9.5228095029  MEMB      54              0.0000000000
      6058        54  OSM       C9F            18.3879553642      -26.0077763323        9.5085483299  MEMB      54              0.0000000000
      6059        54  OSM       H9F            18.1263776397      -26.1081808769       10.5722662644  MEMB      54              0.0000000000
      6060        54  OSM       C10F           17.6611059668      -25.1035609848        8.8753056518  MEMB      54              0.0000000000
      6061        54  OSM       H10F           16.8169531026      -24.7164270788        9.4648249095  MEMB      54              0.0000000000
      6062        54  OSM       C11F           17.8340933084      -24.6220497309        7.4641087477  MEMB      54              0.0000000000
      6063        54  OSM       H11F           18.8579551402      -24.5618065133        7.0370268680  MEMB      54              0.0000000000
      6064        54  OSM       H11G           17.4481726397      -23.5830553397        7.3874480083  MEMB      54              0.0000000000
      6065        54  OSM       C12F           17.0504732681      -25.3988375128        6.3624598077  MEMB      54              0.0000000000
      6066        54  OSM       H12F           15.9611611185      -25.2324814408        6.5040424127  MEMB      54              0.0000000000
      6067        54  OSM       H12G           17.1799583182      -26.4985968193        6.4523699946  MEMB      54              0.0000000000
      6068        54  OSM       C13F           17.4055501158      -24.8969354835        4.9480347723  MEMB      54              0.0000000000
      6069        54  OSM       H13F           18.4675680866      -25.0707496420        4.6719406338  MEMB      54              0.0000000000
      6070        54  OSM       H13G           17.1189852263      -23.8504778807        4.7090191678  MEMB      54              0.0000000000
      6071        54  OSM       C14F           16.5545107486      -25.6187530351        3.9460691995  MEMB      54              0.0000000000
      6072        54  OSM       H14F           15.4644434478      -25.5303693453        4.1416785083  MEMB      54              0.0000000000
      6073        54  OSM       H14G           16.7557847038      -26.7111256847        3.9230119976  MEMB      54              0.0000000000
      6074        54  OSM       C15F           16.6655753212      -25.0762267382        2.4860806383  MEMB      54              0.0000000000
      6075        54  OSM       H15F           17.6796107829      -24.9925857152        2.0399210361  MEMB      54              0.0000000000
      6076        54  OSM       H15G           16.3335278129      -24.0160484719        2.4954161737  MEMB      54              0.0000000000
      6077        54  OSM       C16F           15.7929186759      -25.8991467942        1.6000773240  MEMB      54              0.0000000000
      6078        54  OSM       H16F           14.7125623688      -25.7350184773        1.8006094232  MEMB      54              0.0000000000
      6079        54  OSM       H16G           16.1204656594      -26.9573412781        1.6852741097  MEMB      54              0.0000000000
      6080        54  OSM       C17F           16.0594699400      -25.4717444465        0.1770972137  MEMB      54              0.0000000000
      6081        54  OSM       H17F           17.1642641799      -25.4153470639        0.0742874098  MEMB      54              0.0000000000
      6082        54  OSM       H17G           15.6852991961      -24.4367255367        0.0252652655  MEMB      54              0.0000000000
      6083        54  OSM       C18F           15.5079446291      -26.4274730653       -0.9064082182  MEMB      54              0.0000000000
      6084        54  OSM       H18F           15.9377883172      -27.4249779537       -0.6728706846  MEMB      54              0.0000000000
      6085        54  OSM       H18G           15.8029982192      -26.1426093607       -1.9389380400  MEMB      54              0.0000000000
      6086        54  OSM       H18H           14.4365575413      -26.6177200667       -0.6822280213  MEMB      54              0.0000000000
      6087        55  OSM       N             -29.7652778428       -6.7512690979       21.7224882576  MEMB      55              0.0000000000
      6088        55  OSM       C15           -29.5267669116       -7.0145948895       20.2457249675  MEMB      55              0.0000000000
      6089        55  OSM       H15A          -29.9962239557       -7.9449776138       19.9621792516  MEMB      55              0.0000000000
      6090        55  OSM       H15B          -28.4559256638       -7.1412715684       20.1852905629  MEMB      55              0.0000000000
      6091        55  OSM       H15C          -29.8278353361       -6.1145398960       19.7303038766  MEMB      55              0.0000000000
      6092        55  OSM       C14           -29.2974172822       -7.9137295578       22.5149967299  MEMB      55              0.0000000000
      6093        55  OSM       H14A          -29.9174397661       -8.7443092668       22.2115006982  MEMB      55              0.0000000000
      6094        55  OSM       H14B          -29.5257622705       -7.5585331565       23.5090259060  MEMB      55              0.0000000000
      6095        55  OSM       H14C          -28.2208435568       -7.9996649888       22.5170135621  MEMB      55              0.0000000000
      6096        55  OSM       C13           -28.9293932620       -5.4928252018       22.1541255302  MEMB      55              0.0000000000
      6097        55  OSM       H13A          -29.1044762638       -4.7258257789       21.4142215919  MEMB      55              0.0000000000
      6098        55  OSM       H13B          -27.9027023556       -5.8279447552       22.1547291097  MEMB      55              0.0000000000
      6099        55  OSM       H13C          -29.2482835524       -5.2627665883       23.1599992375  MEMB      55              0.0000000000
      6100        55  OSM       C12           -31.2346450191       -6.4561549070       21.9477684962  MEMB      55              0.0000000000
      6101        55  OSM       H12A          -31.4068954912       -6.2150348960       22.9863209038  MEMB      55              0.0000000000
      6102        55  OSM       H12B          -31.7123070424       -7.3946141479       21.7079070919  MEMB      55              0.0000000000
      6103        55  OSM       C11           -32.0307454441       -5.3522117948       21.0542816151  MEMB      55              0.0000000000
      6104        55  OSM       H11A          -33.0523787674       -5.1959373853       21.4619145737  MEMB      55              0.0000000000
      6105        55  OSM       H11B          -32.0486221066       -5.7441613879       20.0148697771  MEMB      55              0.0000000000
      6106        55  OSM       P             -31.8533512491       -2.7409328998       20.2739673002  MEMB      55              0.0000000000
      6107        55  OSM       O13           -33.2851000729       -2.5261368213       20.3254445336  MEMB      55              0.0000000000
      6108        55  OSM       O14           -30.9647732004       -1.6261997399       20.7876564722  MEMB      55              0.0000000000
      6109        55  OSM       O11           -31.2819131833       -3.1330933261       18.8671754967  MEMB      55              0.0000000000
      6110        55  OSM       O12           -31.3899960353       -4.0649341277       21.1063705988  MEMB      55              0.0000000000
      6111        55  OSM       C1S           -32.0598616098       -3.6676798714       17.7168322781  MEMB      55              0.0000000000
      6112        55  OSM       H1S           -32.6322864825       -2.8961398106       17.1588210105  MEMB      55              0.0000000000
      6113        55  OSM       H1T           -32.6546591469       -4.5342255365       18.0768816774  MEMB      55              0.0000000000
      6114        55  OSM       NF            -31.8010245588       -4.8919933383       15.6521068094  MEMB      55              0.0000000000
      6115        55  OSM       HNF           -31.4653207866       -5.8081594247       15.4472857794  MEMB      55              0.0000000000
      6116        55  OSM       C2S           -31.0493958935       -4.3006834474       16.6330368381  MEMB      55              0.0000000000
      6117        55  OSM       H2S           -30.5431882737       -3.4498202873       16.1289466367  MEMB      55              0.0000000000
      6118        55  OSM       C3S           -30.0317747480       -5.3849453816       17.2274329097  MEMB      55              0.0000000000
      6119        55  OSM       H3S           -30.6383532409       -6.1550394040       17.7502509276  MEMB      55              0.0000000000
      6120        55  OSM       O3            -29.2393444673       -4.7188078784       18.2212507362  MEMB      55              0.0000000000
      6121        55  OSM       HO3           -29.5220687768       -3.8086043115       18.1063755738  MEMB      55              0.0000000000
      6122        55  OSM       C4S           -29.0554960118       -5.8564621921       16.1643590945  MEMB      55              0.0000000000
      6123        55  OSM       H4S           -28.2007009386       -5.2026313874       15.9366959011  MEMB      55              0.0000000000
      6124        55  OSM       C5S           -29.1966974794       -6.9420236266       15.4663551071  MEMB      55              0.0000000000
      6125        55  OSM       H5S           -29.9859121722       -7.6383792165       15.7860884563  MEMB      55              0.0000000000
      6126        55  OSM       C6S           -28.1594316032       -7.3911967153       14.3947218434  MEMB      55              0.0000000000
      6127        55  OSM       H6S           -28.4982177045       -8.1928413091       13.7041343105  MEMB      55              0.0000000000
      6128        55  OSM       H6T           -27.4004202046       -7.9983866122       14.9328140048  MEMB      55              0.0000000000
      6129        55  OSM       C7S           -27.3625240949       -6.4287461389       13.4792072678  MEMB      55              0.0000000000
      6130        55  OSM       H7S           -26.4112863327       -6.9289733765       13.1977093292  MEMB      55              0.0000000000
      6131        55  OSM       H7T           -27.0133380507       -5.5409454133       14.0485932208  MEMB      55              0.0000000000
      6132        55  OSM       C8S           -28.0267917468       -5.8403830629       12.2440176992  MEMB      55              0.0000000000
      6133        55  OSM       H8S           -29.0535316391       -6.2369080132       12.0927099446  MEMB      55              0.0000000000
      6134        55  OSM       H8T           -27.4712830982       -6.3009822962       11.3992812094  MEMB      55              0.0000000000
      6135        55  OSM       C9S           -28.1191489714       -4.3043643155       12.1805229713  MEMB      55              0.0000000000
      6136        55  OSM       H9S           -27.0420866490       -4.0402764596       12.1133239013  MEMB      55              0.0000000000
      6137        55  OSM       H9T           -28.6009552474       -3.9350365335       13.1109964701  MEMB      55              0.0000000000
      6138        55  OSM       C10S          -29.0024279946       -3.7691409063       10.9936425114  MEMB      55              0.0000000000
      6139        55  OSM       H10S          -28.7445075888       -2.6935815443       10.8889041845  MEMB      55              0.0000000000
      6140        55  OSM       H10T          -30.0270339636       -4.0098113557       11.3494252187  MEMB      55              0.0000000000
      6141        55  OSM       C11S          -28.6075943734       -4.4648129709        9.6875233556  MEMB      55              0.0000000000
      6142        55  OSM       H11S          -28.6648959954       -5.5649952442        9.8311774661  MEMB      55              0.0000000000
      6143        55  OSM       H11T          -27.5462796649       -4.2204411264        9.4679455495  MEMB      55              0.0000000000
      6144        55  OSM       C12S          -29.4301725121       -4.1235095547        8.4533544065  MEMB      55              0.0000000000
      6145        55  OSM       H12S          -29.4385562507       -3.0243954732        8.2914944485  MEMB      55              0.0000000000
      6146        55  OSM       H12T          -30.4900914862       -4.3890510942        8.6543027404  MEMB      55              0.0000000000
      6147        55  OSM       C13S          -28.8969371463       -4.8308566189        7.2030707400  MEMB      55              0.0000000000
      6148        55  OSM       H13S          -29.0115123419       -5.9285379890        7.3306996973  MEMB      55              0.0000000000
      6149        55  OSM       H13T          -27.8179441337       -4.6007004518        7.0722135436  MEMB      55              0.0000000000
      6150        55  OSM       C14S          -29.5492537015       -4.3055601824        5.8377184249  MEMB      55              0.0000000000
      6151        55  OSM       H14S          -29.0382976548       -3.3695628403        5.5260234055  MEMB      55              0.0000000000
      6152        55  OSM       H14T          -30.6165963117       -4.0551472600        6.0177015599  MEMB      55              0.0000000000
      6153        55  OSM       C15S          -29.3637251923       -5.4044706651        4.6797397271  MEMB      55              0.0000000000
      6154        55  OSM       H15S          -30.1420686301       -6.1840274528        4.8239400398  MEMB      55              0.0000000000
      6155        55  OSM       H15T          -28.3537799132       -5.8493953261        4.8076987571  MEMB      55              0.0000000000
      6156        55  OSM       C16S          -29.6960161812       -4.7589705916        3.3102214900  MEMB      55              0.0000000000
      6157        55  OSM       H16S          -29.4207024750       -3.6828365437        3.3316423458  MEMB      55              0.0000000000
      6158        55  OSM       H16T          -30.8012652465       -4.7078397534        3.2095674399  MEMB      55              0.0000000000
      6159        55  OSM       C17S          -29.1373193360       -5.4485231858        2.0577604498  MEMB      55              0.0000000000
      6160        55  OSM       H17S          -28.0785381244       -5.1130410788        2.0302907613  MEMB      55              0.0000000000
      6161        55  OSM       H17T          -29.6244355101       -5.1538821457        1.1037035837  MEMB      55              0.0000000000
      6162        55  OSM       C18S          -29.1190702383       -6.9524557143        2.1067560807  MEMB      55              0.0000000000
      6163        55  OSM       H18S          -28.6011490440       -7.3262500240        3.0157977661  MEMB      55              0.0000000000
      6164        55  OSM       H18T          -28.4489043714       -7.3420199196        1.3108676963  MEMB      55              0.0000000000
      6165        55  OSM       H18U          -30.1309171900       -7.3964860877        1.9913286306  MEMB      55              0.0000000000
      6166        55  OSM       C1F           -32.8099847165       -4.3212761197       14.8993891349  MEMB      55              0.0000000000
      6167        55  OSM       OF            -33.0328105922       -3.1352137486       14.8251826162  MEMB      55              0.0000000000
      6168        55  OSM       C2F           -33.4012518561       -5.2921441836       14.0640821207  MEMB      55              0.0000000000
      6169        55  OSM       H2F           -34.4942853778       -5.1012933613       14.0077392220  MEMB      55              0.0000000000
      6170        55  OSM       H2G           -33.3682761058       -6.2764220556       14.5783101845  MEMB      55              0.0000000000
      6171        55  OSM       C3F           -32.7163975142       -5.2581911958       12.6510509927  MEMB      55              0.0000000000
      6172        55  OSM       H3F           -31.6522717445       -5.5568374241       12.7640460669  MEMB      55              0.0000000000
      6173        55  OSM       H3G           -32.8880092255       -4.2878953786       12.1378286773  MEMB      55              0.0000000000
      6174        55  OSM       C4F           -33.3392131924       -6.3356837156       11.6457342969  MEMB      55              0.0000000000
      6175        55  OSM       H4F           -34.4018156491       -6.0967451813       11.4264037055  MEMB      55              0.0000000000
      6176        55  OSM       H4G           -33.3228432572       -7.2422466555       12.2877591760  MEMB      55              0.0000000000
      6177        55  OSM       C5F           -32.4569401888       -6.4391813438       10.3850058021  MEMB      55              0.0000000000
      6178        55  OSM       H5F           -31.3939902980       -6.6920695045       10.5862666301  MEMB      55              0.0000000000
      6179        55  OSM       H5G           -32.4529720785       -5.5011141488        9.7897451890  MEMB      55              0.0000000000
      6180        55  OSM       C6F           -33.0875847172       -7.3844462761        9.3643806532  MEMB      55              0.0000000000
      6181        55  OSM       H6F           -33.9583941253       -6.8797941267        8.8939141807  MEMB      55              0.0000000000
      6182        55  OSM       H6G           -33.5131950306       -8.0945072772       10.1053190251  MEMB      55              0.0000000000
      6183        55  OSM       C7F           -32.2915341321       -8.0966186610        8.2956621018  MEMB      55              0.0000000000
      6184        55  OSM       H7F           -31.4767159515       -8.7093443418        8.7372049197  MEMB      55              0.0000000000
      6185        55  OSM       H7G           -31.7483316896       -7.3183648181        7.7181041999  MEMB      55              0.0000000000
      6186        55  OSM       C8F           -33.0983758883       -8.8880483620        7.3225970255  MEMB      55              0.0000000000
      6187        55  OSM       H8F           -33.7074869476       -9.5988579678        7.9209735701  MEMB      55              0.0000000000
      6188        55  OSM       H8G           -32.3195226277       -9.4735984775        6.7888936867  MEMB      55              0.0000000000
      6189        55  OSM       C9F           -34.0457336731       -8.1302742703        6.3917810953  MEMB      55              0.0000000000
      6190        55  OSM       H9F           -34.9730041436       -7.6449329872        6.7303265870  MEMB      55              0.0000000000
      6191        55  OSM       C10F          -33.8162488610       -7.9493015314        5.0835196077  MEMB      55              0.0000000000
      6192        55  OSM       H10F          -34.6442568838       -7.5662057565        4.4689962661  MEMB      55              0.0000000000
      6193        55  OSM       C11F          -32.6267559072       -8.3799635805        4.2718283061  MEMB      55              0.0000000000
      6194        55  OSM       H11F          -31.9478880255       -9.0918714915        4.7882060734  MEMB      55              0.0000000000
      6195        55  OSM       H11G          -32.0089835596       -7.4856694340        4.0417930996  MEMB      55              0.0000000000
      6196        55  OSM       C12F          -32.9402467648       -8.8347537447        2.8242414341  MEMB      55              0.0000000000
      6197        55  OSM       H12F          -33.6232075988       -9.7090028409        2.8840240035  MEMB      55              0.0000000000
      6198        55  OSM       H12G          -32.0984215638       -9.2996254707        2.2678744342  MEMB      55              0.0000000000
      6199        55  OSM       C13F          -33.6086506841       -7.7244698029        1.9443328346  MEMB      55              0.0000000000
      6200        55  OSM       H13F          -32.9701583284       -6.8210396218        2.0466204000  MEMB      55              0.0000000000
      6201        55  OSM       H13G          -34.6026435608       -7.5108386922        2.3922844412  MEMB      55              0.0000000000
      6202        55  OSM       C14F          -33.8034593334       -8.1677977764        0.4328304791  MEMB      55              0.0000000000
      6203        55  OSM       H14F          -34.3997979931       -9.1050408391        0.4161857648  MEMB      55              0.0000000000
      6204        55  OSM       H14G          -32.7809377458       -8.4375718655        0.0922536445  MEMB      55              0.0000000000
      6205        55  OSM       C15F          -34.2846129996       -7.0505148867       -0.5781974622  MEMB      55              0.0000000000
      6206        55  OSM       H15F          -33.3246017770       -6.7057438625       -1.0184624117  MEMB      55              0.0000000000
      6207        55  OSM       H15G          -34.7692069937       -6.3319711779        0.1169160231  MEMB      55              0.0000000000
      6208        55  OSM       C16F          -35.1555072866       -7.5681553957       -1.6548357060  MEMB      55              0.0000000000
      6209        55  OSM       H16F          -35.8773389240       -8.3368475640       -1.3049902558  MEMB      55              0.0000000000
      6210        55  OSM       H16G          -34.5290005081       -8.0554078254       -2.4322656867  MEMB      55              0.0000000000
      6211        55  OSM       C17F          -35.9362165599       -6.3748741579       -2.3356603498  MEMB      55              0.0000000000
      6212        55  OSM       H17F          -35.9301304503       -6.5450472413       -3.4335328032  MEMB      55              0.0000000000
      6213        55  OSM       H17G          -35.3215634775       -5.4568614178       -2.2182913553  MEMB      55              0.0000000000
      6214        55  OSM       C18F          -37.3657110892       -6.1715936965       -1.9558483836  MEMB      55              0.0000000000
      6215        55  OSM       H18F          -37.9639086337       -7.0834113205       -2.1681440181  MEMB      55              0.0000000000
      6216        55  OSM       H18G          -37.7237457735       -5.2346518767       -2.4336273348  MEMB      55              0.0000000000
      6217        55  OSM       H18H          -37.4881738294       -5.9977831954       -0.8653827561  MEMB      55              0.0000000000
      6218        56  OSM       N              27.2298806621      -11.1630925575       22.1238893833  MEMB      56              0.0000000000
      6219        56  OSM       C15            28.1989110230      -11.0418666436       23.2692521133  MEMB      56              0.0000000000
      6220        56  OSM       H15A           27.7543340535      -11.5385031830       24.1190188362  MEMB      56              0.0000000000
      6221        56  OSM       H15B           28.3950972695       -9.9927588763       23.4344296272  MEMB      56              0.0000000000
      6222        56  OSM       H15C           29.0723995743      -11.6712552878       23.1838834267  MEMB      56              0.0000000000
      6223        56  OSM       C14            27.0138053513      -12.5741163411       21.7738501597  MEMB      56              0.0000000000
      6224        56  OSM       H14A           27.9680028116      -12.9649078050       21.4526194309  MEMB      56              0.0000000000
      6225        56  OSM       H14B           26.4295254508      -12.5372806151       20.8662929276  MEMB      56              0.0000000000
      6226        56  OSM       H14C           26.6259358868      -13.2150037825       22.5518093896  MEMB      56              0.0000000000
      6227        56  OSM       C13            25.9647579738      -10.4601224141       22.5314599691  MEMB      56              0.0000000000
      6228        56  OSM       H13A           26.1292036227       -9.4584009241       22.9001220232  MEMB      56              0.0000000000
      6229        56  OSM       H13B           25.4596779297      -10.9377595236       23.3579930913  MEMB      56              0.0000000000
      6230        56  OSM       H13C           25.2645050378      -10.4194149785       21.7102481878  MEMB      56              0.0000000000
      6231        56  OSM       C12            27.8068851599      -10.3440290592       20.9170782118  MEMB      56              0.0000000000
      6232        56  OSM       H12A           28.3476034665       -9.5013299859       21.3219015466  MEMB      56              0.0000000000
      6233        56  OSM       H12B           27.0867847056       -9.8814231822       20.2584045000  MEMB      56              0.0000000000
      6234        56  OSM       C11            28.8622719902      -11.1032947238       20.0169371591  MEMB      56              0.0000000000
      6235        56  OSM       H11A           29.3189306216      -10.3062706999       19.3920079331  MEMB      56              0.0000000000
      6236        56  OSM       H11B           28.2720682550      -11.7198711833       19.3057311593  MEMB      56              0.0000000000
      6237        56  OSM       P              30.8697323445      -12.6292176857       20.0833501522  MEMB      56              0.0000000000
      6238        56  OSM       O13            32.1444361557      -11.8794344090       20.1868127396  MEMB      56              0.0000000000
      6239        56  OSM       O14            30.7931056666      -13.9161276812       20.7271684647  MEMB      56              0.0000000000
      6240        56  OSM       O11            30.4844437804      -12.7207567115       18.5788313452  MEMB      56              0.0000000000
      6241        56  OSM       O12            29.7998124892      -11.7887484771       20.7913702970  MEMB      56              0.0000000000
      6242        56  OSM       C1S            29.8665547399      -13.9611314786       18.1035565876  MEMB      56              0.0000000000
      6243        56  OSM       H1S            28.8213319797      -14.0112104022       18.4768158165  MEMB      56              0.0000000000
      6244        56  OSM       H1T            30.4319725723      -14.8691693860       18.4037084203  MEMB      56              0.0000000000
      6245        56  OSM       NF             28.7257690561      -14.6393038864       16.0549716303  MEMB      56              0.0000000000
      6246        56  OSM       HNF            28.9800893897      -15.4949491478       15.6108983632  MEMB      56              0.0000000000
      6247        56  OSM       C2S            29.8682069716      -13.8902029344       16.5916615445  MEMB      56              0.0000000000
      6248        56  OSM       H2S            29.7263886668      -12.8356826713       16.2719808234  MEMB      56              0.0000000000
      6249        56  OSM       C3S            31.0124954308      -14.4642773608       15.8407982581  MEMB      56              0.0000000000
      6250        56  OSM       H3S            30.9369246438      -15.5708252248       15.7762838812  MEMB      56              0.0000000000
      6251        56  OSM       O3             32.2741757555      -14.1590329072       16.4223955595  MEMB      56              0.0000000000
      6252        56  OSM       HO3            32.1137455739      -13.6867760430       17.2426612323  MEMB      56              0.0000000000
      6253        56  OSM       C4S            31.0199814785      -14.0164071235       14.4090290045  MEMB      56              0.0000000000
      6254        56  OSM       H4S            30.7903467558      -12.9420737988       14.3535701226  MEMB      56              0.0000000000
      6255        56  OSM       C5S            31.1771994281      -14.7307216373       13.3292664904  MEMB      56              0.0000000000
      6256        56  OSM       H5S            31.2021212152      -15.8171004269       13.5000281918  MEMB      56              0.0000000000
      6257        56  OSM       C6S            31.1638826042      -14.2469034395       11.9267877149  MEMB      56              0.0000000000
      6258        56  OSM       H6S            30.2770246404      -14.7378750138       11.4720891978  MEMB      56              0.0000000000
      6259        56  OSM       H6T            32.0868684789      -14.6312429427       11.4423284394  MEMB      56              0.0000000000
      6260        56  OSM       C7S            31.1318698924      -12.6863088082       11.7162262876  MEMB      56              0.0000000000
      6261        56  OSM       H7S            32.1239055605      -12.2421795922       11.9463036500  MEMB      56              0.0000000000
      6262        56  OSM       H7T            30.2249988700      -12.3336129408       12.2524279236  MEMB      56              0.0000000000
      6263        56  OSM       C8S            31.0017009730      -12.2535484908       10.2658025135  MEMB      56              0.0000000000
      6264        56  OSM       H8S            30.1995110431      -12.8905133392        9.8355843030  MEMB      56              0.0000000000
      6265        56  OSM       H8T            32.0035121054      -12.4001833340        9.8084254414  MEMB      56              0.0000000000
      6266        56  OSM       C9S            30.5281193024      -10.8506081866       10.1703641995  MEMB      56              0.0000000000
      6267        56  OSM       H9S            30.5985564263      -10.4356608249        9.1421724199  MEMB      56              0.0000000000
      6268        56  OSM       H9T            31.2263524902      -10.2437518744       10.7856014720  MEMB      56              0.0000000000
      6269        56  OSM       C10S           29.0759778637      -10.5136815993       10.5629348975  MEMB      56              0.0000000000
      6270        56  OSM       H10S           28.9475511023       -9.4179439561       10.4318382233  MEMB      56              0.0000000000
      6271        56  OSM       H10T           28.9749545634      -10.6343466207       11.6627326258  MEMB      56              0.0000000000
      6272        56  OSM       C11S           27.9236330342      -11.2104329525        9.7670337310  MEMB      56              0.0000000000
      6273        56  OSM       H11S           26.9740566112      -10.9537616063       10.2835070950  MEMB      56              0.0000000000
      6274        56  OSM       H11T           27.9962810569      -12.3187853335        9.7914946871  MEMB      56              0.0000000000
      6275        56  OSM       C12S           27.7075149566      -10.6951988352        8.2567578030  MEMB      56              0.0000000000
      6276        56  OSM       H12S           28.5581201961      -10.9801521177        7.6013242944  MEMB      56              0.0000000000
      6277        56  OSM       H12T           27.7172132676       -9.5862935789        8.1892590309  MEMB      56              0.0000000000
      6278        56  OSM       C13S           26.3443900460      -11.0618195963        7.5741145882  MEMB      56              0.0000000000
      6279        56  OSM       H13S           25.4777668907      -10.6936533118        8.1638088709  MEMB      56              0.0000000000
      6280        56  OSM       H13T           26.2974208445      -12.1716547962        7.5936277296  MEMB      56              0.0000000000
      6281        56  OSM       C14S           26.3651611933      -10.7218549553        6.0689455161  MEMB      56              0.0000000000
      6282        56  OSM       H14S           27.3021334517      -11.0271003232        5.5558862805  MEMB      56              0.0000000000
      6283        56  OSM       H14T           26.3116820722       -9.6169791924        5.9654547099  MEMB      56              0.0000000000
      6284        56  OSM       C15S           25.1361719380      -11.2578992924        5.2010984086  MEMB      56              0.0000000000
      6285        56  OSM       H15S           25.2024910568      -10.6945689540        4.2458072941  MEMB      56              0.0000000000
      6286        56  OSM       H15T           24.2194228020      -11.0529240692        5.7942909641  MEMB      56              0.0000000000
      6287        56  OSM       C16S           25.1303511781      -12.8340075323        5.0798587607  MEMB      56              0.0000000000
      6288        56  OSM       H16S           24.1661013760      -13.1673258617        4.6400367920  MEMB      56              0.0000000000
      6289        56  OSM       H16T           25.2667786859      -13.2926960740        6.0825111256  MEMB      56              0.0000000000
      6290        56  OSM       C17S           26.2340375175      -13.3156849621        4.1593339409  MEMB      56              0.0000000000
      6291        56  OSM       H17S           25.9749243321      -14.3899404822        4.0446339959  MEMB      56              0.0000000000
      6292        56  OSM       H17T           27.2977658093      -13.2021220454        4.4591796304  MEMB      56              0.0000000000
      6293        56  OSM       C18S           26.0797991234      -12.8380737999        2.6848638295  MEMB      56              0.0000000000
      6294        56  OSM       H18S           26.6067833392      -11.8654607674        2.5817491626  MEMB      56              0.0000000000
      6295        56  OSM       H18T           25.0046993944      -12.7777566759        2.4112876768  MEMB      56              0.0000000000
      6296        56  OSM       H18U           26.6500526006      -13.4855164827        1.9848997353  MEMB      56              0.0000000000
      6297        56  OSM       C1F            27.4572590470      -14.2383563204       16.2543898837  MEMB      56              0.0000000000
      6298        56  OSM       OF             27.1761967475      -13.0720743935       16.6106315307  MEMB      56              0.0000000000
      6299        56  OSM       C2F            26.4656683277      -15.3203519367       16.1783768416  MEMB      56              0.0000000000
      6300        56  OSM       H2F            25.6158627877      -15.2658540581       16.8919460519  MEMB      56              0.0000000000
      6301        56  OSM       H2G            26.9879486879      -16.3003293981       16.2128455609  MEMB      56              0.0000000000
      6302        56  OSM       C3F            25.8604992813      -15.2246934300       14.7655441399  MEMB      56              0.0000000000
      6303        56  OSM       H3F            25.0940549442      -14.4240562144       14.6889674069  MEMB      56              0.0000000000
      6304        56  OSM       H3G            25.2924658961      -16.1535777077       14.5445632978  MEMB      56              0.0000000000
      6305        56  OSM       C4F            26.7935801127      -15.0463806842       13.5667891987  MEMB      56              0.0000000000
      6306        56  OSM       H4F            27.2746925839      -16.0351679849       13.4081965164  MEMB      56              0.0000000000
      6307        56  OSM       H4G            27.5781044743      -14.2622820019       13.6302880922  MEMB      56              0.0000000000
      6308        56  OSM       C5F            26.0231701623      -14.7122547770       12.3348442605  MEMB      56              0.0000000000
      6309        56  OSM       H5F            26.8216095764      -14.4358356406       11.6134514731  MEMB      56              0.0000000000
      6310        56  OSM       H5G            25.3287961253      -13.8463276302       12.3831746954  MEMB      56              0.0000000000
      6311        56  OSM       C6F            25.3495537536      -15.8916632706       11.6688990006  MEMB      56              0.0000000000
      6312        56  OSM       H6F            24.5402856477      -16.4059247331       12.2300949575  MEMB      56              0.0000000000
      6313        56  OSM       H6G            26.1527830959      -16.6449528547       11.5215946146  MEMB      56              0.0000000000
      6314        56  OSM       C7F            24.6437959934      -15.5602756843       10.3582642786  MEMB      56              0.0000000000
      6315        56  OSM       H7F            23.9128503732      -14.7235941744       10.3601630480  MEMB      56              0.0000000000
      6316        56  OSM       H7G            24.0450609841      -16.4350105350       10.0255838073  MEMB      56              0.0000000000
      6317        56  OSM       C8F            25.5549607631      -15.3055134369        9.1505413627  MEMB      56              0.0000000000
      6318        56  OSM       H8F            26.2544755153      -14.4948740211        9.4469593495  MEMB      56              0.0000000000
      6319        56  OSM       H8G            25.0438548928      -14.8032110781        8.3015509585  MEMB      56              0.0000000000
      6320        56  OSM       C9F            26.2128995165      -16.5989260034        8.7172979076  MEMB      56              0.0000000000
      6321        56  OSM       H9F            25.6347327158      -17.5231824363        8.8638351599  MEMB      56              0.0000000000
      6322        56  OSM       C10F           27.4063919343      -16.6392912673        8.1579082630  MEMB      56              0.0000000000
      6323        56  OSM       H10F           27.8164688745      -17.5525308179        7.7020230666  MEMB      56              0.0000000000
      6324        56  OSM       C11F           28.2143419219      -15.3867399644        7.8154737800  MEMB      56              0.0000000000
      6325        56  OSM       H11F           28.2760225103      -14.8092010530        8.7625555144  MEMB      56              0.0000000000
      6326        56  OSM       H11G           27.8955961228      -14.7546883439        6.9591833592  MEMB      56              0.0000000000
      6327        56  OSM       C12F           29.6551685265      -15.7633179180        7.3610537524  MEMB      56              0.0000000000
      6328        56  OSM       H12F           29.5881867776      -16.0621863654        6.2931064187  MEMB      56              0.0000000000
      6329        56  OSM       H12G           30.1149904064      -16.5580754494        7.9865503414  MEMB      56              0.0000000000
      6330        56  OSM       C13F           30.7321092228      -14.6143167213        7.5106472926  MEMB      56              0.0000000000
      6331        56  OSM       H13F           31.6468659317      -15.0341162637        7.0402119450  MEMB      56              0.0000000000
      6332        56  OSM       H13G           30.9302581832      -14.3846283884        8.5794321122  MEMB      56              0.0000000000
      6333        56  OSM       C14F           30.4195928402      -13.3562019180        6.7015108634  MEMB      56              0.0000000000
      6334        56  OSM       H14F           31.2208636610      -12.6306108970        6.9580327602  MEMB      56              0.0000000000
      6335        56  OSM       H14G           29.4469676111      -12.9335132681        7.0326531798  MEMB      56              0.0000000000
      6336        56  OSM       C15F           30.3979572636      -13.4998815135        5.1370433103  MEMB      56              0.0000000000
      6337        56  OSM       H15F           29.6173086766      -14.1978925870        4.7659780187  MEMB      56              0.0000000000
      6338        56  OSM       H15G           31.4085172464      -13.6748114476        4.7098558678  MEMB      56              0.0000000000
      6339        56  OSM       C16F           30.0553350568      -12.1048137707        4.4685534928  MEMB      56              0.0000000000
      6340        56  OSM       H16F           30.8448675493      -11.3483842823        4.6654643096  MEMB      56              0.0000000000
      6341        56  OSM       H16G           29.1486312331      -11.6423835806        4.9139381032  MEMB      56              0.0000000000
      6342        56  OSM       C17F           29.8923288797      -12.2296794383        2.9648246439  MEMB      56              0.0000000000
      6343        56  OSM       H17F           29.3265862163      -11.3528814115        2.5834045376  MEMB      56              0.0000000000
      6344        56  OSM       H17G           29.1160361716      -12.9569961488        2.6443553899  MEMB      56              0.0000000000
      6345        56  OSM       C18F           31.1856096332      -12.4542849463        2.1562604739  MEMB      56              0.0000000000
      6346        56  OSM       H18F           31.0217332425      -12.5928262040        1.0661821868  MEMB      56              0.0000000000
      6347        56  OSM       H18G           31.7361483983      -13.3677324019        2.4674539816  MEMB      56              0.0000000000
      6348        56  OSM       H18H           31.9052783400      -11.6837259694        2.5064550093  MEMB      56              0.0000000000
      6349        57  SLPC      N              29.8072862074        4.1845033023       15.7712352383  MEMB      57              0.0000000000
      6350        57  SLPC      C13            28.8773212816        5.3210405861       16.1174957885  MEMB      57              0.0000000000
      6351        57  SLPC      H13A           29.3441634578        5.8161473384       16.9561420519  MEMB      57              0.0000000000
      6352        57  SLPC      H13B           28.7620487291        5.9422883971       15.2416170670  MEMB      57              0.0000000000
      6353        57  SLPC      H13C           27.9975555180        4.8351285747       16.5128457416  MEMB      57              0.0000000000
      6354        57  SLPC      C14            29.4367829842        3.7559862973       14.3519460924  MEMB      57              0.0000000000
      6355        57  SLPC      H14A           28.4552396027        3.3069430763       14.3154386140  MEMB      57              0.0000000000
      6356        57  SLPC      H14B           29.5223177076        4.6005328375       13.6842449685  MEMB      57              0.0000000000
      6357        57  SLPC      H14C           30.1282029181        2.9926014705       14.0270124992  MEMB      57              0.0000000000
      6358        57  SLPC      C15            29.4177318691        3.1296908096       16.7472803158  MEMB      57              0.0000000000
      6359        57  SLPC      H15A           30.0638361053        2.2767631029       16.6007754818  MEMB      57              0.0000000000
      6360        57  SLPC      H15B           29.6374569871        3.5091628907       17.7342563967  MEMB      57              0.0000000000
      6361        57  SLPC      H15C           28.4080309632        2.7531511798       16.6757121950  MEMB      57              0.0000000000
      6362        57  SLPC      C12            31.2456458073        4.6110375121       15.7836118207  MEMB      57              0.0000000000
      6363        57  SLPC      H12A           31.2777864908        5.5890136500       15.3265235774  MEMB      57              0.0000000000
      6364        57  SLPC      H12B           31.7814181823        3.9731231262       15.0962888076  MEMB      57              0.0000000000
      6365        57  SLPC      C11            31.9700455450        4.6379729276       17.1584899378  MEMB      57              0.0000000000
      6366        57  SLPC      H11A           33.0006756109        5.0173188439       16.9905037818  MEMB      57              0.0000000000
      6367        57  SLPC      H11B           32.0638200703        3.7135355758       17.7675407261  MEMB      57              0.0000000000
      6368        57  SLPC      P              31.8309009452        7.0389353473       18.2666008772  MEMB      57              0.0000000000
      6369        57  SLPC      O13            31.2309633283        7.5583130499       19.5097761175  MEMB      57              0.0000000000
      6370        57  SLPC      O14            33.3417679070        7.1578896702       18.2079526976  MEMB      57              0.0000000000
      6371        57  SLPC      O12            31.2252186539        5.5839350952       18.0375851527  MEMB      57              0.0000000000
      6372        57  SLPC      O11            31.1491609448        7.8252746664       17.0480259629  MEMB      57              0.0000000000
      6373        57  SLPC      C1             30.0340686662        8.6933866979       17.1667404727  MEMB      57              0.0000000000
      6374        57  SLPC      HA             29.0894524599        8.1463317786       16.9599746239  MEMB      57              0.0000000000
      6375        57  SLPC      HB             29.8575328830        9.1161367803       18.1788859443  MEMB      57              0.0000000000
      6376        57  SLPC      C2             30.1026105496        9.8934192297       16.1581648732  MEMB      57              0.0000000000
      6377        57  SLPC      HS             29.1880850820       10.5202033498       16.2296236931  MEMB      57              0.0000000000
      6378        57  SLPC      O21            30.3233824640        9.3949603329       14.8089746254  MEMB      57              0.0000000000
      6379        57  SLPC      C21            29.3600801995        8.7049915016       14.2388810003  MEMB      57              0.0000000000
      6380        57  SLPC      O22            28.2576852395        8.4603960653       14.7074753763  MEMB      57              0.0000000000
      6381        57  SLPC      C22            29.9709596692        8.1977393947       12.9127103846  MEMB      57              0.0000000000
      6382        57  SLPC      H2R            31.0356170482        8.4586097272       12.7316795039  MEMB      57              0.0000000000
      6383        57  SLPC      H2S            29.9492070999        7.0917925985       12.8091271153  MEMB      57              0.0000000000
      6384        57  SLPC      C3             31.2277042710       10.8996061148       16.4733943831  MEMB      57              0.0000000000
      6385        57  SLPC      HX             30.9412999362       11.2763866389       17.4785460143  MEMB      57              0.0000000000
      6386        57  SLPC      HY             31.2784988034       11.7829649797       15.8015179135  MEMB      57              0.0000000000
      6387        57  SLPC      O31            32.4973097224       10.3536910078       16.6094447225  MEMB      57              0.0000000000
      6388        57  SLPC      C31            33.2883049016       10.3550261587       15.4785413646  MEMB      57              0.0000000000
      6389        57  SLPC      O32            32.9812607902       10.9065667955       14.4653078947  MEMB      57              0.0000000000
      6390        57  SLPC      C32            34.6305478567        9.6381945433       15.7655338240  MEMB      57              0.0000000000
      6391        57  SLPC      H2X            34.5655908729        8.8738737421       16.5692223472  MEMB      57              0.0000000000
      6392        57  SLPC      H2Y            35.3740458576       10.4375911943       15.9716829227  MEMB      57              0.0000000000
      6393        57  SLPC      C23            29.1242535626        8.7024271964       11.8193798549  MEMB      57              0.0000000000
      6394        57  SLPC      H3R            29.1664026529        9.8112150729       11.7633996048  MEMB      57              0.0000000000
      6395        57  SLPC      H3S            28.0766526939        8.3751447937       11.9918323286  MEMB      57              0.0000000000
      6396        57  SLPC      C24            29.5269044986        8.1965694951       10.3902685164  MEMB      57              0.0000000000
      6397        57  SLPC      H4R            29.0649676610        8.8618755283        9.6298062107  MEMB      57              0.0000000000
      6398        57  SLPC      H4S            29.1014659628        7.1702548064       10.3891649732  MEMB      57              0.0000000000
      6399        57  SLPC      C25            31.0542855743        8.1977380821       10.1494335579  MEMB      57              0.0000000000
      6400        57  SLPC      H5R            31.1575587227        7.6773874931        9.1732720582  MEMB      57              0.0000000000
      6401        57  SLPC      H5S            31.5793808004        7.5698868006       10.9006985490  MEMB      57              0.0000000000
      6402        57  SLPC      C26            31.6529658299        9.6069143276       10.1883889018  MEMB      57              0.0000000000
      6403        57  SLPC      H6R            31.5049688651        9.7089576382       11.2847489780  MEMB      57              0.0000000000
      6404        57  SLPC      H6S            31.0697982611       10.2549828727        9.4997351622  MEMB      57              0.0000000000
      6405        57  SLPC      C27            33.1578751308        9.7058175308        9.9363754390  MEMB      57              0.0000000000
      6406        57  SLPC      H7R            33.7877026296        8.8399787672       10.2329579225  MEMB      57              0.0000000000
      6407        57  SLPC      H7S            33.6024476044       10.5427788370       10.5161787065  MEMB      57              0.0000000000
      6408        57  SLPC      C28            33.5655624111        9.9077743264        8.5082688383  MEMB      57              0.0000000000
      6409        57  SLPC      H8R            33.2134935694        8.9926837314        7.9857962310  MEMB      57              0.0000000000
      6410        57  SLPC      H8S            34.6689231050        9.7881214213        8.4572811760  MEMB      57              0.0000000000
      6411        57  SLPC      C29            33.1538662103       11.1830661417        7.8478400499  MEMB      57              0.0000000000
      6412        57  SLPC      H9R            33.7556234823       12.0568480396        8.1383443275  MEMB      57              0.0000000000
      6413        57  SLPC      C210           32.2258969874       11.4219689035        6.9051326974  MEMB      57              0.0000000000
      6414        57  SLPC      H10R           32.0514804865       12.4556181848        6.5717435875  MEMB      57              0.0000000000
      6415        57  SLPC      C211           31.4114734481       10.3801876772        6.3051140045  MEMB      57              0.0000000000
      6416        57  SLPC      H11R           31.5978747788        9.3487415109        6.6734808922  MEMB      57              0.0000000000
      6417        57  SLPC      H11S           31.8203578671       10.3228077938        5.2736863071  MEMB      57              0.0000000000
      6418        57  SLPC      C212           29.9367087399       10.6625342257        6.1748297362  MEMB      57              0.0000000000
      6419        57  SLPC      H12R           29.5224762477       10.7118109779        7.1926625075  MEMB      57              0.0000000000
      6420        57  SLPC      C213           29.1866605900       10.9576004348        5.1407875689  MEMB      57              0.0000000000
      6421        57  SLPC      H13R           28.1283353968       11.1772379511        5.3450108599  MEMB      57              0.0000000000
      6422        57  SLPC      C214           29.5922114339       11.1106198914        3.6623674548  MEMB      57              0.0000000000
      6423        57  SLPC      H14R           28.7954180708       10.6748183978        3.0224311769  MEMB      57              0.0000000000
      6424        57  SLPC      H14S           30.5403462345       10.5509731931        3.5135156864  MEMB      57              0.0000000000
      6425        57  SLPC      C215           29.9140025618       12.5681764276        3.3443124870  MEMB      57              0.0000000000
      6426        57  SLPC      H15R           30.7995582578       12.7819901229        3.9802342366  MEMB      57              0.0000000000
      6427        57  SLPC      H15S           29.0446842919       13.2156799365        3.5879226794  MEMB      57              0.0000000000
      6428        57  SLPC      C216           30.2129312423       12.9507235267        1.8675060639  MEMB      57              0.0000000000
      6429        57  SLPC      H16R           30.6639335427       13.9648806103        1.8184849477  MEMB      57              0.0000000000
      6430        57  SLPC      H16S           29.1698810372       13.0576367346        1.5001678563  MEMB      57              0.0000000000
      6431        57  SLPC      C217           31.0362832616       11.9005694705        1.0725581093  MEMB      57              0.0000000000
      6432        57  SLPC      H17R           31.2824531943       12.4308744830        0.1278363916  MEMB      57              0.0000000000
      6433        57  SLPC      H17S           30.5009833633       10.9452575225        0.8850642416  MEMB      57              0.0000000000
      6434        57  SLPC      C218           32.3683654763       11.5807901876        1.7367747756  MEMB      57              0.0000000000
      6435        57  SLPC      H18R           32.8346901183       12.3741430739        2.3592318368  MEMB      57              0.0000000000
      6436        57  SLPC      H18S           33.1459475288       11.1180561079        1.0921311713  MEMB      57              0.0000000000
      6437        57  SLPC      H18T           32.2001677369       10.7489194261        2.4537276708  MEMB      57              0.0000000000
      6438        57  SLPC      C33            34.9630619986        8.8624839685       14.4705990570  MEMB      57              0.0000000000
      6439        57  SLPC      H3X            35.9917133639        8.4544295504       14.5690333520  MEMB      57              0.0000000000
      6440        57  SLPC      H3Y            34.9820470889        9.5762788819       13.6194484168  MEMB      57              0.0000000000
      6441        57  SLPC      C34            34.0214236035        7.7602383461       14.0349247370  MEMB      57              0.0000000000
      6442        57  SLPC      H4X            33.0176615515        8.2098491089       13.8779759111  MEMB      57              0.0000000000
      6443        57  SLPC      H4Y            33.8433721054        7.0907971668       14.9035253192  MEMB      57              0.0000000000
      6444        57  SLPC      C35            34.5450492621        6.9562778809       12.8229737309  MEMB      57              0.0000000000
      6445        57  SLPC      H5X            35.5074846847        6.5347303074       13.1839956804  MEMB      57              0.0000000000
      6446        57  SLPC      H5Y            34.5036177767        7.6446016862       11.9518739891  MEMB      57              0.0000000000
      6447        57  SLPC      C36            33.6756542130        5.7390817161       12.4105443104  MEMB      57              0.0000000000
      6448        57  SLPC      H6X            32.5927989689        5.9584190991       12.2937678581  MEMB      57              0.0000000000
      6449        57  SLPC      H6Y            33.7599858112        4.8742750748       13.1028723114  MEMB      57              0.0000000000
      6450        57  SLPC      C37            34.2633179901        5.0816659360       11.1684184100  MEMB      57              0.0000000000
      6451        57  SLPC      H7X            35.2329552276        4.5496295230       11.2735932192  MEMB      57              0.0000000000
      6452        57  SLPC      H7Y            34.6898047487        5.7319434141       10.3749644189  MEMB      57              0.0000000000
      6453        57  SLPC      C38            33.3054805021        4.1837379108       10.4241620165  MEMB      57              0.0000000000
      6454        57  SLPC      H8X            32.7445576218        3.4545478020       11.0470331004  MEMB      57              0.0000000000
      6455        57  SLPC      H8Y            33.9332202887        3.7243843330        9.6309037733  MEMB      57              0.0000000000
      6456        57  SLPC      C39            32.2622341013        4.9706490771        9.6444687913  MEMB      57              0.0000000000
      6457        57  SLPC      H9X            32.8699536477        5.7317482807        9.1099354800  MEMB      57              0.0000000000
      6458        57  SLPC      H9Y            31.5716487513        5.4716103158       10.3561224863  MEMB      57              0.0000000000
      6459        57  SLPC      C310           31.4777200995        4.1731094967        8.5540267860  MEMB      57              0.0000000000
      6460        57  SLPC      H10X           30.7977558764        3.4673799002        9.0773958380  MEMB      57              0.0000000000
      6461        57  SLPC      H10Y           32.1597772930        3.5850585925        7.9033997738  MEMB      57              0.0000000000
      6462        57  SLPC      C311           30.4883949477        4.9944155388        7.7218878627  MEMB      57              0.0000000000
      6463        57  SLPC      H11X           29.6671241397        5.4585901725        8.3087245063  MEMB      57              0.0000000000
      6464        57  SLPC      H11Y           30.0381879750        4.2560188718        7.0244601893  MEMB      57              0.0000000000
      6465        57  SLPC      C312           31.1434231249        6.0529708528        6.7886432776  MEMB      57              0.0000000000
      6466        57  SLPC      H12X           32.0360353928        5.6350186247        6.2759249593  MEMB      57              0.0000000000
      6467        57  SLPC      H12Y           31.5815948769        6.7721167313        7.5133191855  MEMB      57              0.0000000000
      6468        57  SLPC      C313           30.1345193499        6.9304054119        6.0228080484  MEMB      57              0.0000000000
      6469        57  SLPC      H13X           30.6079831525        7.8024846463        5.5231769639  MEMB      57              0.0000000000
      6470        57  SLPC      H13Y           29.4017143727        7.2931577664        6.7749572366  MEMB      57              0.0000000000
      6471        57  SLPC      C314           29.5835699156        6.2910902518        4.7262086071  MEMB      57              0.0000000000
      6472        57  SLPC      H14X           29.1415327092        5.2777094288        4.8356771712  MEMB      57              0.0000000000
      6473        57  SLPC      H14Y           30.4514655132        6.0424859822        4.0786946872  MEMB      57              0.0000000000
      6474        57  SLPC      C315           28.5010313854        7.0317693039        3.9875556498  MEMB      57              0.0000000000
      6475        57  SLPC      H15X           28.8667709122        7.9942418635        3.5701789925  MEMB      57              0.0000000000
      6476        57  SLPC      H15Y           27.7871139308        7.2444424269        4.8118201131  MEMB      57              0.0000000000
      6477        57  SLPC      C316           28.0389661288        6.3183668025        2.6881824827  MEMB      57              0.0000000000
      6478        57  SLPC      H16X           28.8171797351        6.0502728318        1.9419718304  MEMB      57              0.0000000000
      6479        57  SLPC      H16Y           27.3938518520        6.9626861788        2.0533587198  MEMB      57              0.0000000000
      6480        57  SLPC      C317           27.0509129301        5.1500976127        3.1866246989  MEMB      57              0.0000000000
      6481        57  SLPC      H17X           26.0424802047        5.3500978960        2.7654535252  MEMB      57              0.0000000000
      6482        57  SLPC      H17Y           27.1151351409        5.2850150325        4.2875301405  MEMB      57              0.0000000000
      6483        57  SLPC      C318           27.4932571978        3.7238676473        2.7363677558  MEMB      57              0.0000000000
      6484        57  SLPC      H18X           28.2781855243        3.2752648285        3.3820958335  MEMB      57              0.0000000000
      6485        57  SLPC      H18Y           27.6721269694        3.6378371956        1.6432419713  MEMB      57              0.0000000000
      6486        57  SLPC      H18Z           26.5874829041        3.1112718852        2.9328903592  MEMB      57              0.0000000000
      6487        58  SLPC      N              21.6694692976      -21.2395668097       18.3747448015  MEMB      58              0.0000000000
      6488        58  SLPC      C13            22.9113138520      -22.0901591084       18.6058874612  MEMB      58              0.0000000000
      6489        58  SLPC      H13A           23.6681589292      -21.7119450018       17.9346650797  MEMB      58              0.0000000000
      6490        58  SLPC      H13B           23.2086635582      -22.1233648529       19.6436159552  MEMB      58              0.0000000000
      6491        58  SLPC      H13C           22.8061625019      -23.1384202842       18.3682074358  MEMB      58              0.0000000000
      6492        58  SLPC      C14            21.9800157923      -19.9237287502       18.9965176124  MEMB      58              0.0000000000
      6493        58  SLPC      H14A           22.8707581450      -19.5369466943       18.5238891391  MEMB      58              0.0000000000
      6494        58  SLPC      H14B           21.1834519095      -19.2041737767       18.8776633589  MEMB      58              0.0000000000
      6495        58  SLPC      H14C           22.1156607818      -20.0307899041       20.0626032834  MEMB      58              0.0000000000
      6496        58  SLPC      C15            20.5565035552      -21.9131914040       19.0682488058  MEMB      58              0.0000000000
      6497        58  SLPC      H15A           19.7281282829      -21.2311599804       19.1908351247  MEMB      58              0.0000000000
      6498        58  SLPC      H15B           20.2312376414      -22.8717057564       18.6916158656  MEMB      58              0.0000000000
      6499        58  SLPC      H15C           20.8968055047      -22.0754114609       20.0803156043  MEMB      58              0.0000000000
      6500        58  SLPC      C12            21.4311763464      -21.0247182585       16.9093716326  MEMB      58              0.0000000000
      6501        58  SLPC      H12A           22.0587824666      -20.2027271373       16.5981785178  MEMB      58              0.0000000000
      6502        58  SLPC      H12B           20.4264711747      -20.6787214621       16.7163592966  MEMB      58              0.0000000000
      6503        58  SLPC      C11            21.5166951427      -22.2376410916       15.8899139855  MEMB      58              0.0000000000
      6504        58  SLPC      H11A           22.4730591364      -22.2061013211       15.3253840117  MEMB      58              0.0000000000
      6505        58  SLPC      H11B           20.7403865512      -22.1189073073       15.1040588367  MEMB      58              0.0000000000
      6506        58  SLPC      P              20.9849105387      -24.7794375653       15.8091132171  MEMB      58              0.0000000000
      6507        58  SLPC      O13            19.9101578190      -25.4318372592       16.5705239500  MEMB      58              0.0000000000
      6508        58  SLPC      O14            20.8864197740      -24.4725384385       14.3358541611  MEMB      58              0.0000000000
      6509        58  SLPC      O12            21.3868514553      -23.4845998157       16.5808918740  MEMB      58              0.0000000000
      6510        58  SLPC      O11            22.3033792278      -25.6640355928       15.8589324452  MEMB      58              0.0000000000
      6511        58  SLPC      C1             23.3738815238      -25.4214655946       16.8239599887  MEMB      58              0.0000000000
      6512        58  SLPC      HA             23.2429021339      -24.4776964755       17.3953312997  MEMB      58              0.0000000000
      6513        58  SLPC      HB             23.5261272684      -26.2038973556       17.5978739779  MEMB      58              0.0000000000
      6514        58  SLPC      C2             24.6928262729      -25.1941314986       16.1195509229  MEMB      58              0.0000000000
      6515        58  SLPC      HS             25.3605965238      -24.6285710793       16.8040544769  MEMB      58              0.0000000000
      6516        58  SLPC      O21            24.4194378652      -24.3605235432       14.9471359418  MEMB      58              0.0000000000
      6517        58  SLPC      C21            25.3620577425      -23.4520643415       14.6649693187  MEMB      58              0.0000000000
      6518        58  SLPC      O22            26.4318999084      -23.2696581731       15.1615393209  MEMB      58              0.0000000000
      6519        58  SLPC      C22            24.8329590625      -22.6823535911       13.3751736887  MEMB      58              0.0000000000
      6520        58  SLPC      H2R            25.2736723609      -23.1624010620       12.4753694997  MEMB      58              0.0000000000
      6521        58  SLPC      H2S            23.7400668519      -22.8649790620       13.2942065297  MEMB      58              0.0000000000
      6522        58  SLPC      C3             25.4450173045      -26.4860367179       15.6953854222  MEMB      58              0.0000000000
      6523        58  SLPC      HX             25.7922036286      -26.9181991742       16.6582034528  MEMB      58              0.0000000000
      6524        58  SLPC      HY             26.3415828857      -26.1534239197       15.1298239957  MEMB      58              0.0000000000
      6525        58  SLPC      O31            24.5661431063      -27.3849408562       14.9987961295  MEMB      58              0.0000000000
      6526        58  SLPC      C31            24.7302882674      -27.2652943970       13.6442579597  MEMB      58              0.0000000000
      6527        58  SLPC      O32            25.6333278055      -26.7565007000       13.0159346950  MEMB      58              0.0000000000
      6528        58  SLPC      C32            23.4964621617      -27.7961229390       12.8260653769  MEMB      58              0.0000000000
      6529        58  SLPC      H2X            22.6407792466      -28.1668359739       13.4299689484  MEMB      58              0.0000000000
      6530        58  SLPC      H2Y            23.8168754733      -28.7235143168       12.3049115938  MEMB      58              0.0000000000
      6531        58  SLPC      C23            25.3831064020      -21.2410945095       13.2027460603  MEMB      58              0.0000000000
      6532        58  SLPC      H3R            26.4609930616      -21.3463615849       12.9549543067  MEMB      58              0.0000000000
      6533        58  SLPC      H3S            25.1131600738      -20.8175244475       14.1937246618  MEMB      58              0.0000000000
      6534        58  SLPC      C24            24.8142983427      -20.3659732122       12.0600355684  MEMB      58              0.0000000000
      6535        58  SLPC      H4R            24.9541332551      -20.9049586865       11.0986502797  MEMB      58              0.0000000000
      6536        58  SLPC      H4S            25.5702983133      -19.5522090355       12.0361108633  MEMB      58              0.0000000000
      6537        58  SLPC      C25            23.5045935862      -19.7170811728       12.2562849178  MEMB      58              0.0000000000
      6538        58  SLPC      H5R            23.4527662026      -19.2751728268       13.2742986093  MEMB      58              0.0000000000
      6539        58  SLPC      H5S            22.7781217145      -20.5358208553       12.0659563078  MEMB      58              0.0000000000
      6540        58  SLPC      C26            22.8962602746      -18.6939224393       11.2746829377  MEMB      58              0.0000000000
      6541        58  SLPC      H6R            23.5018816638      -17.8123081535       11.5751824775  MEMB      58              0.0000000000
      6542        58  SLPC      H6S            21.8769417255      -18.3722262263       11.5777051710  MEMB      58              0.0000000000
      6543        58  SLPC      C27            22.9833600979      -19.0348720822        9.7810306235  MEMB      58              0.0000000000
      6544        58  SLPC      H7R            24.0382361157      -19.3215383750        9.5825857331  MEMB      58              0.0000000000
      6545        58  SLPC      H7S            22.7439437008      -18.0909478597        9.2462331025  MEMB      58              0.0000000000
      6546        58  SLPC      C28            21.8544728243      -20.0308400840        9.3938245898  MEMB      58              0.0000000000
      6547        58  SLPC      H8R            20.8594043371      -19.6433383721        9.7004220130  MEMB      58              0.0000000000
      6548        58  SLPC      H8S            22.1179684432      -20.8922917656       10.0440491465  MEMB      58              0.0000000000
      6549        58  SLPC      C29            21.7950766974      -20.6214412762        8.0176139466  MEMB      58              0.0000000000
      6550        58  SLPC      H9R            20.9214474661      -20.2193328550        7.4836845945  MEMB      58              0.0000000000
      6551        58  SLPC      C210           22.7256336459      -21.3196631867        7.2837411421  MEMB      58              0.0000000000
      6552        58  SLPC      H10R           22.5264744750      -21.6327358510        6.2482122881  MEMB      58              0.0000000000
      6553        58  SLPC      C211           24.1077556842      -21.7134027656        7.8463113367  MEMB      58              0.0000000000
      6554        58  SLPC      H11R           24.4710108355      -21.1266696212        8.7170070212  MEMB      58              0.0000000000
      6555        58  SLPC      H11S           24.7405327754      -21.3091180010        7.0274908663  MEMB      58              0.0000000000
      6556        58  SLPC      C212           24.4441181067      -23.1538812607        8.1129008466  MEMB      58              0.0000000000
      6557        58  SLPC      H12R           23.9953119650      -23.4688598692        9.0665053100  MEMB      58              0.0000000000
      6558        58  SLPC      C213           25.1037102758      -24.0165973914        7.2377497044  MEMB      58              0.0000000000
      6559        58  SLPC      H13R           25.2313837218      -25.0793407600        7.4912769692  MEMB      58              0.0000000000
      6560        58  SLPC      C214           25.6428598096      -23.6141208434        5.8450383994  MEMB      58              0.0000000000
      6561        58  SLPC      H14R           26.7393626737      -23.4499968490        5.9162131304  MEMB      58              0.0000000000
      6562        58  SLPC      H14S           25.1634091338      -22.6985455491        5.4373988400  MEMB      58              0.0000000000
      6563        58  SLPC      C215           25.2466031756      -24.6971297363        4.8544276089  MEMB      58              0.0000000000
      6564        58  SLPC      H15R           25.1757582395      -24.2870264446        3.8243222724  MEMB      58              0.0000000000
      6565        58  SLPC      H15S           24.2064763254      -25.0426228127        5.0363390296  MEMB      58              0.0000000000
      6566        58  SLPC      C216           26.2368796645      -25.8492807931        4.9656405030  MEMB      58              0.0000000000
      6567        58  SLPC      H16R           26.0843456579      -26.4218025250        5.9054663876  MEMB      58              0.0000000000
      6568        58  SLPC      H16S           27.2133814741      -25.3268032172        4.8774214181  MEMB      58              0.0000000000
      6569        58  SLPC      C217           26.1836051426      -26.9486928920        3.9240707662  MEMB      58              0.0000000000
      6570        58  SLPC      H17R           25.1856313348      -27.4309570803        4.0001672634  MEMB      58              0.0000000000
      6571        58  SLPC      H17S           26.9595722895      -27.6741499756        4.2495052265  MEMB      58              0.0000000000
      6572        58  SLPC      C218           26.5366133987      -26.6370359036        2.4154386152  MEMB      58              0.0000000000
      6573        58  SLPC      H18R           27.6233704086      -26.6085244390        2.1863808935  MEMB      58              0.0000000000
      6574        58  SLPC      H18S           26.1711454610      -25.6102049430        2.2000962657  MEMB      58              0.0000000000
      6575        58  SLPC      H18T           25.9894196618      -27.3721974186        1.7873957446  MEMB      58              0.0000000000
      6576        58  SLPC      C33            22.7942855589      -26.7363675420       11.9234176137  MEMB      58              0.0000000000
      6577        58  SLPC      H3X            23.4796996605      -25.9544672065       11.5320603603  MEMB      58              0.0000000000
      6578        58  SLPC      H3Y            22.1205337078      -26.3918715574       12.7368681262  MEMB      58              0.0000000000
      6579        58  SLPC      C34            22.0681818304      -27.2771863932       10.7025460616  MEMB      58              0.0000000000
      6580        58  SLPC      H4X            21.3793113905      -26.4565551161       10.4087051406  MEMB      58              0.0000000000
      6581        58  SLPC      H4Y            21.6325535672      -28.2484347674       11.0207061340  MEMB      58              0.0000000000
      6582        58  SLPC      C35            23.0025888387      -27.3884515219        9.4698113919  MEMB      58              0.0000000000
      6583        58  SLPC      H5X            23.5947608554      -28.3174024400        9.6136980826  MEMB      58              0.0000000000
      6584        58  SLPC      H5Y            23.6256319680      -26.4685944432        9.4687620776  MEMB      58              0.0000000000
      6585        58  SLPC      C36            22.1550954948      -27.5699990030        8.1604264842  MEMB      58              0.0000000000
      6586        58  SLPC      H6X            21.2715509738      -26.9000056898        8.2295568670  MEMB      58              0.0000000000
      6587        58  SLPC      H6Y            21.6904625511      -28.5782792320        8.2029464156  MEMB      58              0.0000000000
      6588        58  SLPC      C37            22.9809998218      -27.3437869384        6.8775080652  MEMB      58              0.0000000000
      6589        58  SLPC      H7X            23.8313197087      -28.0588123168        6.8814272881  MEMB      58              0.0000000000
      6590        58  SLPC      H7Y            23.4260615090      -26.3258276660        6.8769468475  MEMB      58              0.0000000000
      6591        58  SLPC      C38            22.2204912225      -27.6673648398        5.5384537000  MEMB      58              0.0000000000
      6592        58  SLPC      H8X            22.1131138217      -28.7585038946        5.3589921587  MEMB      58              0.0000000000
      6593        58  SLPC      H8Y            22.9517879823      -27.3412118060        4.7682906851  MEMB      58              0.0000000000
      6594        58  SLPC      C39            20.9468736573      -26.8394714521        5.1847303477  MEMB      58              0.0000000000
      6595        58  SLPC      H9X            20.1883568201      -27.0814727990        5.9595915443  MEMB      58              0.0000000000
      6596        58  SLPC      H9Y            20.4918565726      -27.2293509871        4.2491694281  MEMB      58              0.0000000000
      6597        58  SLPC      C310           21.2067756677      -25.3732351457        5.0932829890  MEMB      58              0.0000000000
      6598        58  SLPC      H10X           21.8732381299      -25.1260724747        4.2394332910  MEMB      58              0.0000000000
      6599        58  SLPC      H10Y           21.5526461619      -24.9341573968        6.0534419346  MEMB      58              0.0000000000
      6600        58  SLPC      C311           19.8681483766      -24.6768250326        4.8436878486  MEMB      58              0.0000000000
      6601        58  SLPC      H11X           19.0619263923      -24.9316038751        5.5643929276  MEMB      58              0.0000000000
      6602        58  SLPC      H11Y           19.3133900093      -25.0676493507        3.9640175529  MEMB      58              0.0000000000
      6603        58  SLPC      C312           20.0164224315      -23.1647222882        4.8328970186  MEMB      58              0.0000000000
      6604        58  SLPC      H12X           21.0111793844      -22.9060579854        4.4111482608  MEMB      58              0.0000000000
      6605        58  SLPC      H12Y           20.0660065733      -22.9044418826        5.9118395593  MEMB      58              0.0000000000
      6606        58  SLPC      C313           18.8346370883      -22.3397018296        4.2122494755  MEMB      58              0.0000000000
      6607        58  SLPC      H13X           18.8313150048      -21.2930955253        4.5849765697  MEMB      58              0.0000000000
      6608        58  SLPC      H13Y           17.9024327213      -22.7993241542        4.6047599372  MEMB      58              0.0000000000
      6609        58  SLPC      C314           18.6091540663      -22.3912585794        2.6897138693  MEMB      58              0.0000000000
      6610        58  SLPC      H14X           17.8469036851      -21.5847100047        2.6370360972  MEMB      58              0.0000000000
      6611        58  SLPC      H14Y           18.2402974006      -23.3913643347        2.3765771850  MEMB      58              0.0000000000
      6612        58  SLPC      C315           19.8017372628      -22.0396207254        1.8964591603  MEMB      58              0.0000000000
      6613        58  SLPC      H15X           20.5886624307      -22.7950263900        2.1072485329  MEMB      58              0.0000000000
      6614        58  SLPC      H15Y           20.0847690411      -20.9960823447        2.1518834012  MEMB      58              0.0000000000
      6615        58  SLPC      C316           19.4386713778      -22.0007081966        0.4223356181  MEMB      58              0.0000000000
      6616        58  SLPC      H16X           18.5059453765      -21.4590301544        0.1560117931  MEMB      58              0.0000000000
      6617        58  SLPC      H16Y           19.1720557164      -23.0331385034        0.1103670024  MEMB      58              0.0000000000
      6618        58  SLPC      C317           20.5726184269      -21.5549426777       -0.5238584680  MEMB      58              0.0000000000
      6619        58  SLPC      H17X           20.1730747948      -21.9442713354       -1.4846449459  MEMB      58              0.0000000000
      6620        58  SLPC      H17Y           21.5225039172      -21.9583911162       -0.1124364272  MEMB      58              0.0000000000
      6621        58  SLPC      C318           20.6553870947      -20.0088028480       -0.7461860332  MEMB      58              0.0000000000
      6622        58  SLPC      H18X           20.9977132375      -19.5240527519        0.1930432439  MEMB      58              0.0000000000
      6623        58  SLPC      H18Y           19.6971163751      -19.5521409891       -1.0740550744  MEMB      58              0.0000000000
      6624        58  SLPC      H18Z           21.4036678639      -19.7885119402       -1.5373054191  MEMB      58              0.0000000000
      6625        59  CHL1      C3              7.9437013108      -31.4289873846       17.4587900000  MEMB      59              0.0000000000
      6626        59  CHL1      H3              7.1257476785      -30.6850932156       17.5678100000  MEMB      59              0.0000000000
      6627        59  CHL1      O3              8.7581571092      -31.3478626154       18.5412100000  MEMB      59              0.0000000000
      6628        59  CHL1      H3'             9.4948032418      -31.8895621035       18.2487900000  MEMB      59              0.0000000000
      6629        59  CHL1      C4              7.4589084508      -32.8293000161       17.1390500000  MEMB      59              0.0000000000
      6630        59  CHL1      H4A             8.3520311978      -33.4896941736       17.1160600000  MEMB      59              0.0000000000
      6631        59  CHL1      H4B             6.7689372436      -33.0621003849       17.9781400000  MEMB      59              0.0000000000
      6632        59  CHL1      C5              6.7829503609      -32.9566584092       15.7799700000  MEMB      59              0.0000000000
      6633        59  CHL1      C6              5.4575951034      -33.3405942148       15.6463200000  MEMB      59              0.0000000000
      6634        59  CHL1      H6              4.9584959464      -33.6929712896       16.5610500000  MEMB      59              0.0000000000
      6635        59  CHL1      C7              4.7383189330      -33.4446572692       14.3456100000  MEMB      59              0.0000000000
      6636        59  CHL1      H7A             4.0873806523      -34.3449817515       14.3412900000  MEMB      59              0.0000000000
      6637        59  CHL1      H7B             4.0883351953      -32.5817324933       14.0863800000  MEMB      59              0.0000000000
      6638        59  CHL1      C8              5.7262924856      -33.5560964034       13.1923500000  MEMB      59              0.0000000000
      6639        59  CHL1      H8              6.2006781504      -34.5544775373       13.3042400000  MEMB      59              0.0000000000
      6640        59  CHL1      C14             5.0419455011      -33.4747011895       11.8725800000  MEMB      59              0.0000000000
      6641        59  CHL1      H14             4.5340526452      -32.4866053921       11.8780800000  MEMB      59              0.0000000000
      6642        59  CHL1      C15             3.9748874814      -34.6151928265       11.5567400000  MEMB      59              0.0000000000
      6643        59  CHL1      H15A            4.3758157757      -35.6080103359       11.8532200000  MEMB      59              0.0000000000
      6644        59  CHL1      H15B            3.0535284324      -34.4401448931       12.1523700000  MEMB      59              0.0000000000
      6645        59  CHL1      C16             3.8282247499      -34.5353605168        9.9864700000  MEMB      59              0.0000000000
      6646        59  CHL1      H16A            4.1948919122      -35.5180929215        9.6202400000  MEMB      59              0.0000000000
      6647        59  CHL1      H16B            2.7736115083      -34.3570714943        9.6859200000  MEMB      59              0.0000000000
      6648        59  CHL1      C17             4.9448024807      -33.5085135449        9.5055800000  MEMB      59              0.0000000000
      6649        59  CHL1      H17             4.3993082393      -32.5419466098        9.5556600000  MEMB      59              0.0000000000
      6650        59  CHL1      C13             6.0136137215      -33.3725008886       10.6574400000  MEMB      59              0.0000000000
      6651        59  CHL1      C18             6.8310430894      -34.7272947954       10.6044900000  MEMB      59              0.0000000000
      6652        59  CHL1      H18A            7.6695104348      -34.7161947547        9.8756800000  MEMB      59              0.0000000000
      6653        59  CHL1      H18B            7.2933443722      -35.0950353954       11.5454300000  MEMB      59              0.0000000000
      6654        59  CHL1      H18C            6.1763888848      -35.5858155925       10.3424100000  MEMB      59              0.0000000000
      6655        59  CHL1      C12             6.8026627718      -32.1559227126       10.6888100000  MEMB      59              0.0000000000
      6656        59  CHL1      H12A            7.4550394970      -32.0685088278        9.7937700000  MEMB      59              0.0000000000
      6657        59  CHL1      H12B            6.1855920236      -31.2333765746       10.7382600000  MEMB      59              0.0000000000
      6658        59  CHL1      C11             7.6376180490      -32.1492536849       11.9327700000  MEMB      59              0.0000000000
      6659        59  CHL1      H11A            8.3648639314      -32.9787291170       11.8008400000  MEMB      59              0.0000000000
      6660        59  CHL1      H11B            8.1544185658      -31.1702418319       12.0265000000  MEMB      59              0.0000000000
      6661        59  CHL1      C9              6.7793270029      -32.4412223850       13.2787700000  MEMB      59              0.0000000000
      6662        59  CHL1      H9              6.1307732173      -31.5418031762       13.3477600000  MEMB      59              0.0000000000
      6663        59  CHL1      C10             7.5945253477      -32.4952246531       14.5749000000  MEMB      59              0.0000000000
      6664        59  CHL1      C19             8.7989248475      -33.5180418807       14.3806200000  MEMB      59              0.0000000000
      6665        59  CHL1      H19A            9.6601873644      -33.2423992230       13.7351900000  MEMB      59              0.0000000000
      6666        59  CHL1      H19B            9.2305868852      -33.9308724359       15.3174000000  MEMB      59              0.0000000000
      6667        59  CHL1      H19C            8.3013492579      -34.4622110146       14.0719500000  MEMB      59              0.0000000000
      6668        59  CHL1      C1              8.0419817390      -31.0520023712       14.8601200000  MEMB      59              0.0000000000
      6669        59  CHL1      H1A             8.7871082852      -30.7775439471       14.0830800000  MEMB      59              0.0000000000
      6670        59  CHL1      H1B             7.1815254948      -30.3821412556       14.6474500000  MEMB      59              0.0000000000
      6671        59  CHL1      C2              8.7629248495      -30.7888094803       16.2561900000  MEMB      59              0.0000000000
      6672        59  CHL1      H2A             8.9107290378      -29.6920791176       16.3543800000  MEMB      59              0.0000000000
      6673        59  CHL1      H2B             9.6955662756      -31.3870327531       16.1747600000  MEMB      59              0.0000000000
      6674        59  CHL1      C20             5.4821519357      -33.8211564286        8.0120400000  MEMB      59              0.0000000000
      6675        59  CHL1      H20             6.2718871527      -34.6023763733        8.0304400000  MEMB      59              0.0000000000
      6676        59  CHL1      C21             6.1061492109      -32.5137799237        7.4054500000  MEMB      59              0.0000000000
      6677        59  CHL1      H21A            7.1432005151      -32.2973702219        7.7401100000  MEMB      59              0.0000000000
      6678        59  CHL1      H21B            5.3999770091      -31.6816759963        7.6134000000  MEMB      59              0.0000000000
      6679        59  CHL1      H21C            6.1550816866      -32.4841813406        6.2959200000  MEMB      59              0.0000000000
      6680        59  CHL1      C22             4.3831639702      -34.5450390417        7.1579500000  MEMB      59              0.0000000000
      6681        59  CHL1      H22A            4.1321750217      -35.5612444086        7.5303000000  MEMB      59              0.0000000000
      6682        59  CHL1      H22B            3.4937632436      -33.8911048040        7.2830900000  MEMB      59              0.0000000000
      6683        59  CHL1      C23             4.6024652354      -34.7531567046        5.6462500000  MEMB      59              0.0000000000
      6684        59  CHL1      H23A            4.6535553645      -33.7779095374        5.1165200000  MEMB      59              0.0000000000
      6685        59  CHL1      H23B            5.6213111495      -35.1915002741        5.5819600000  MEMB      59              0.0000000000
      6686        59  CHL1      C24             3.5503992704      -35.7315622534        5.0513600000  MEMB      59              0.0000000000
      6687        59  CHL1      H24A            3.7443472830      -36.7164814655        5.5274300000  MEMB      59              0.0000000000
      6688        59  CHL1      H24B            2.6090904747      -35.4762834425        5.5834100000  MEMB      59              0.0000000000
      6689        59  CHL1      C25             3.4663702804      -35.7876136017        3.5062100000  MEMB      59              0.0000000000
      6690        59  CHL1      H25             4.5077879359      -35.9572094884        3.1583400000  MEMB      59              0.0000000000
      6691        59  CHL1      C26             2.6302340772      -36.9473392059        3.0534900000  MEMB      59              0.0000000000
      6692        59  CHL1      H26A            2.9914281419      -37.8272890007        3.6275700000  MEMB      59              0.0000000000
      6693        59  CHL1      H26B            1.5311679930      -36.8431488102        3.1781000000  MEMB      59              0.0000000000
      6694        59  CHL1      H26C            2.8178760151      -37.1964537649        1.9871600000  MEMB      59              0.0000000000
      6695        59  CHL1      C27             2.8860743245      -34.5747504659        2.9018500000  MEMB      59              0.0000000000
      6696        59  CHL1      H27A            3.1780766750      -34.3405010710        1.8558100000  MEMB      59              0.0000000000
      6697        59  CHL1      H27B            1.7778499510      -34.5555140875        2.8257300000  MEMB      59              0.0000000000
      6698        59  CHL1      H27C            3.1181834895      -33.6658258950        3.4970900000  MEMB      59              0.0000000000
      6699        60  CHL1      C3            -12.1895035423       29.9733883341       17.3167300000  MEMB      60              0.0000000000
      6700        60  CHL1      H3            -11.1850757946       29.5078821909       17.4101800000  MEMB      60              0.0000000000
      6701        60  CHL1      O3            -12.5375884577       30.1022856659       18.6832700000  MEMB      60              0.0000000000
      6702        60  CHL1      H3'           -11.7094105621       30.3626888712       19.0930400000  MEMB      60              0.0000000000
      6703        60  CHL1      C4            -12.0865415035       31.3714447392       16.6353500000  MEMB      60              0.0000000000
      6704        60  CHL1      H4A           -13.0514273270       31.8418562597       16.9217600000  MEMB      60              0.0000000000
      6705        60  CHL1      H4B           -11.3075490528       31.9910238445       17.1289200000  MEMB      60              0.0000000000
      6706        60  CHL1      C5            -11.8612362053       31.2357585557       15.1162500000  MEMB      60              0.0000000000
      6707        60  CHL1      C6            -10.7494031556       31.8101444923       14.4990900000  MEMB      60              0.0000000000
      6708        60  CHL1      H6            -10.1213706624       32.4229596537       15.1624400000  MEMB      60              0.0000000000
      6709        60  CHL1      C7            -10.4574077687       31.6744500658       13.0685800000  MEMB      60              0.0000000000
      6710        60  CHL1      H7A           -10.0754826814       32.6205945466       12.6289600000  MEMB      60              0.0000000000
      6711        60  CHL1      H7B            -9.6848804496       30.8814261813       12.9756400000  MEMB      60              0.0000000000
      6712        60  CHL1      C8            -11.7777685816       31.2679832417       12.2783700000  MEMB      60              0.0000000000
      6713        60  CHL1      H8            -12.3607433538       32.2128630992       12.2376900000  MEMB      60              0.0000000000
      6714        60  CHL1      C14           -11.4179993229       30.7988597691       10.8365500000  MEMB      60              0.0000000000
      6715        60  CHL1      H14           -10.8368262428       29.8687064186       11.0137000000  MEMB      60              0.0000000000
      6716        60  CHL1      C15           -10.4666792860       31.6880477629       10.0386100000  MEMB      60              0.0000000000
      6717        60  CHL1      H15A          -10.6979587048       32.7657319143       10.1780100000  MEMB      60              0.0000000000
      6718        60  CHL1      H15B           -9.4259405351       31.4486741827       10.3450000000  MEMB      60              0.0000000000
      6719        60  CHL1      C16           -10.7106926210       31.1305675361        8.6545900000  MEMB      60              0.0000000000
      6720        60  CHL1      H16A          -11.0266891599       31.9475415819        7.9712000000  MEMB      60              0.0000000000
      6721        60  CHL1      H16B           -9.8744557547       30.5401570758        8.2227900000  MEMB      60              0.0000000000
      6722        60  CHL1      C17           -11.8274369940       30.0712917854        8.7277100000  MEMB      60              0.0000000000
      6723        60  CHL1      H17           -11.3427750584       29.0849951230        8.8909500000  MEMB      60              0.0000000000
      6724        60  CHL1      C13           -12.5951586384       30.4542826869        9.9711000000  MEMB      60              0.0000000000
      6725        60  CHL1      C18           -13.5504015277       31.5853856440        9.7327500000  MEMB      60              0.0000000000
      6726        60  CHL1      H18A          -13.0700203901       32.5248736577        9.3850300000  MEMB      60              0.0000000000
      6727        60  CHL1      H18B          -14.3871960735       31.4408650890        9.0163700000  MEMB      60              0.0000000000
      6728        60  CHL1      H18C          -13.9536177259       31.9082712326       10.7163600000  MEMB      60              0.0000000000
      6729        60  CHL1      C12           -13.2535716773       29.1195922049       10.5689900000  MEMB      60              0.0000000000
      6730        60  CHL1      H12A          -14.0956473665       28.8889488305        9.8819500000  MEMB      60              0.0000000000
      6731        60  CHL1      H12B          -12.5280585274       28.2798000566       10.5171100000  MEMB      60              0.0000000000
      6732        60  CHL1      C11           -13.5499270458       29.3613197298       12.0902200000  MEMB      60              0.0000000000
      6733        60  CHL1      H11A          -14.5272701043       29.8895599197       12.0818900000  MEMB      60              0.0000000000
      6734        60  CHL1      H11B          -13.8487052457       28.4044629797       12.5692500000  MEMB      60              0.0000000000
      6735        60  CHL1      C9            -12.4753655960       30.0710067915       12.9238700000  MEMB      60              0.0000000000
      6736        60  CHL1      H9            -11.6297815582       29.3543449135       12.9993200000  MEMB      60              0.0000000000
      6737        60  CHL1      C10           -12.8400195701       30.2854076080       14.3985900000  MEMB      60              0.0000000000
      6738        60  CHL1      C19           -14.3242156306       30.8474132955       14.3909100000  MEMB      60              0.0000000000
      6739        60  CHL1      H19A          -14.5131493179       31.2179099177       15.4211400000  MEMB      60              0.0000000000
      6740        60  CHL1      H19B          -14.3806494138       31.6804501780       13.6579700000  MEMB      60              0.0000000000
      6741        60  CHL1      H19C          -15.1847944785       30.1968180929       14.1254900000  MEMB      60              0.0000000000
      6742        60  CHL1      C1            -12.8969010379       28.8878076929       15.1520300000  MEMB      60              0.0000000000
      6743        60  CHL1      H1A           -13.6722732763       28.2546750617       14.6701000000  MEMB      60              0.0000000000
      6744        60  CHL1      H1B           -11.8719732786       28.4594709622       15.1327100000  MEMB      60              0.0000000000
      6745        60  CHL1      C2            -13.1942559649       29.1325143088       16.6018800000  MEMB      60              0.0000000000
      6746        60  CHL1      H2A           -13.1402737472       28.1666728258       17.1482900000  MEMB      60              0.0000000000
      6747        60  CHL1      H2B           -14.1730659139       29.6271433586       16.7796300000  MEMB      60              0.0000000000
      6748        60  CHL1      C20           -12.6070077396       29.9902322451        7.3925000000  MEMB      60              0.0000000000
      6749        60  CHL1      H20           -12.9702226972       31.0329801400        7.2696700000  MEMB      60              0.0000000000
      6750        60  CHL1      C21           -13.7894905680       28.9838219735        7.3551500000  MEMB      60              0.0000000000
      6751        60  CHL1      H21A          -13.3052662369       27.9912806172        7.4764000000  MEMB      60              0.0000000000
      6752        60  CHL1      H21B          -14.3730351130       29.0127584203        6.4101800000  MEMB      60              0.0000000000
      6753        60  CHL1      H21C          -14.4793390547       29.3022498492        8.1657200000  MEMB      60              0.0000000000
      6754        60  CHL1      C22           -11.6775008138       29.7669828074        6.1439000000  MEMB      60              0.0000000000
      6755        60  CHL1      H22A          -10.8612777249       30.5186680844        6.1992700000  MEMB      60              0.0000000000
      6756        60  CHL1      H22B          -11.1400368508       28.7953283680        6.1804700000  MEMB      60              0.0000000000
      6757        60  CHL1      C23           -12.3249807143       29.7802303656        4.8134100000  MEMB      60              0.0000000000
      6758        60  CHL1      H23A          -13.2992924674       29.2463956841        4.8208000000  MEMB      60              0.0000000000
      6759        60  CHL1      H23B          -12.3990029648       30.8153219049        4.4166300000  MEMB      60              0.0000000000
      6760        60  CHL1      C24           -11.3961255770       29.1952918690        3.7554700000  MEMB      60              0.0000000000
      6761        60  CHL1      H24A          -10.5151592280       29.8719761709        3.7736400000  MEMB      60              0.0000000000
      6762        60  CHL1      H24B          -11.0834817044       28.1500032137        3.9651100000  MEMB      60              0.0000000000
      6763        60  CHL1      C25           -11.9206551126       29.2511377168        2.3196100000  MEMB      60              0.0000000000
      6764        60  CHL1      H25           -11.1018681461       28.8019162341        1.7178500000  MEMB      60              0.0000000000
      6765        60  CHL1      C26           -13.0948004589       28.3104094281        2.0107500000  MEMB      60              0.0000000000
      6766        60  CHL1      H26A          -13.8819543978       28.4627293541        2.7798400000  MEMB      60              0.0000000000
      6767        60  CHL1      H26B          -13.4530778107       28.3862096108        0.9618400000  MEMB      60              0.0000000000
      6768        60  CHL1      H26C          -12.7829540659       27.2500792959        2.1237700000  MEMB      60              0.0000000000
      6769        60  CHL1      C27           -12.2485726469       30.6483992058        1.7763100000  MEMB      60              0.0000000000
      6770        60  CHL1      H27A          -11.2930054911       31.1729102307        1.9910300000  MEMB      60              0.0000000000
      6771        60  CHL1      H27B          -12.3974981432       30.6770103359        0.6757100000  MEMB      60              0.0000000000
      6772        60  CHL1      H27C          -13.0951734553       31.2261181884        2.2050500000  MEMB      60              0.0000000000
      6773        61  CHL1      C3            -19.7429116826       26.4906592731       17.3311450000  MEMB      61              0.0000000000
      6774        61  CHL1      H3            -20.5790646029       27.2162516584       17.2378550000  MEMB      61              0.0000000000
      6775        61  CHL1      O3            -19.5219061174       26.1277349269       18.6688550000  MEMB      61              0.0000000000
      6776        61  CHL1      H3'           -20.0863859282       25.3758994215       18.8630450000  MEMB      61              0.0000000000
      6777        61  CHL1      C4            -19.9569009449       25.3073919380       16.4205550000  MEMB      61              0.0000000000
      6778        61  CHL1      H4A           -19.1756629174       24.5997726756       16.7716350000  MEMB      61              0.0000000000
      6779        61  CHL1      H4B           -20.9066989939       24.8796127245       16.8068150000  MEMB      61              0.0000000000
      6780        61  CHL1      C5            -19.9937246786       25.4576201778       14.9723750000  MEMB      61              0.0000000000
      6781        61  CHL1      C6            -20.9659327571       24.8961091421       14.2011450000  MEMB      61              0.0000000000
      6782        61  CHL1      H6            -21.7604043608       24.3043200940       14.6792750000  MEMB      61              0.0000000000
      6783        61  CHL1      C7            -21.0438039843       25.0933097916       12.7394550000  MEMB      61              0.0000000000
      6784        61  CHL1      H7A           -21.2030368646       24.1628574836       12.1536050000  MEMB      61              0.0000000000
      6785        61  CHL1      H7B           -21.6767462080       25.9376361186       12.3918550000  MEMB      61              0.0000000000
      6786        61  CHL1      C8            -19.6779731991       25.5986944905       12.1534650000  MEMB      61              0.0000000000
      6787        61  CHL1      H8            -18.8386083443       24.8720120240       12.1948150000  MEMB      61              0.0000000000
      6788        61  CHL1      C14           -19.9380176342       26.2479269637       10.8058050000  MEMB      61              0.0000000000
      6789        61  CHL1      H14           -20.5103962272       27.1639420898       11.0658350000  MEMB      61              0.0000000000
      6790        61  CHL1      C15           -20.9198051327       25.5398840293        9.7561750000  MEMB      61              0.0000000000
      6791        61  CHL1      H15A          -20.6724221049       24.4568673504        9.7703350000  MEMB      61              0.0000000000
      6792        61  CHL1      H15B          -21.9842268399       25.7373902698       10.0058150000  MEMB      61              0.0000000000
      6793        61  CHL1      C16           -20.5205194725       26.1554357572        8.4099450000  MEMB      61              0.0000000000
      6794        61  CHL1      H16A          -20.1490542957       25.3066945877        7.7967650000  MEMB      61              0.0000000000
      6795        61  CHL1      H16B          -21.3948050012       26.5741337233        7.8671350000  MEMB      61              0.0000000000
      6796        61  CHL1      C17           -19.4404461406       27.1934389302        8.7318850000  MEMB      61              0.0000000000
      6797        61  CHL1      H17           -19.9751435171       28.1140841676        9.0494350000  MEMB      61              0.0000000000
      6798        61  CHL1      C13           -18.6771441954       26.7300908995       10.0227450000  MEMB      61              0.0000000000
      6799        61  CHL1      C18           -17.8019452639       25.4803992385        9.7861750000  MEMB      61              0.0000000000
      6800        61  CHL1      H18A          -16.8248145802       25.6702516196        9.2927150000  MEMB      61              0.0000000000
      6801        61  CHL1      H18B          -17.5601939770       24.8406233148       10.6617050000  MEMB      61              0.0000000000
      6802        61  CHL1      H18C          -18.4095242890       24.8323073331        9.1189750000  MEMB      61              0.0000000000
      6803        61  CHL1      C12           -18.0048713705       27.8183988564       10.9025350000  MEMB      61              0.0000000000
      6804        61  CHL1      H12A          -17.0761487822       28.1769032327       10.4093050000  MEMB      61              0.0000000000
      6805        61  CHL1      H12B          -18.7579098740       28.6325955205       10.8366350000  MEMB      61              0.0000000000
      6806        61  CHL1      C11           -17.7506722560       27.2955164316       12.3149650000  MEMB      61              0.0000000000
      6807        61  CHL1      H11A          -16.9095424671       26.5726700578       12.3805550000  MEMB      61              0.0000000000
      6808        61  CHL1      H11B          -17.3878537147       28.1637264038       12.9056550000  MEMB      61              0.0000000000
      6809        61  CHL1      C9            -19.0210733772       26.6939952494       13.0231650000  MEMB      61              0.0000000000
      6810        61  CHL1      H9            -19.8048170783       27.4791672113       13.0829550000  MEMB      61              0.0000000000
      6811        61  CHL1      C10           -18.8391344556       26.3057110501       14.5209450000  MEMB      61              0.0000000000
      6812        61  CHL1      C19           -17.6156350858       25.4198918942       14.5830750000  MEMB      61              0.0000000000
      6813        61  CHL1      H19A          -17.3732340217       25.1511628601       15.6334850000  MEMB      61              0.0000000000
      6814        61  CHL1      H19B          -17.6698885362       24.5496916551       13.8945050000  MEMB      61              0.0000000000
      6815        61  CHL1      H19C          -16.6286733205       25.8858148908       14.3753450000  MEMB      61              0.0000000000
      6816        61  CHL1      C1            -18.6487621576       27.5893737118       15.3611150000  MEMB      61              0.0000000000
      6817        61  CHL1      H1A           -17.7515939494       28.0880371863       14.9359650000  MEMB      61              0.0000000000
      6818        61  CHL1      H1B           -19.4282519464       28.3736911389       15.2536650000  MEMB      61              0.0000000000
      6819        61  CHL1      C2            -18.4999944724       27.2641730355       16.9103850000  MEMB      61              0.0000000000
      6820        61  CHL1      H2A           -18.5367747896       28.2161634241       17.4819350000  MEMB      61              0.0000000000
      6821        61  CHL1      H2B           -17.4998655354       26.8067962807       17.0680950000  MEMB      61              0.0000000000
      6822        61  CHL1      C20           -18.6064460707       27.5838833846        7.4383650000  MEMB      61              0.0000000000
      6823        61  CHL1      H20           -18.0294626514       26.6502592956        7.2658750000  MEMB      61              0.0000000000
      6824        61  CHL1      C21           -17.7256347909       28.7640430755        7.7104550000  MEMB      61              0.0000000000
      6825        61  CHL1      H21A          -16.8603842215       28.5772138007        8.3818450000  MEMB      61              0.0000000000
      6826        61  CHL1      H21B          -18.3612112074       29.6146729196        8.0372350000  MEMB      61              0.0000000000
      6827        61  CHL1      H21C          -17.3306752618       29.0162010975        6.7031050000  MEMB      61              0.0000000000
      6828        61  CHL1      C22           -19.5541723466       27.8522348763        6.2905850000  MEMB      61              0.0000000000
      6829        61  CHL1      H22A          -20.3754326247       27.1119094942        6.1820650000  MEMB      61              0.0000000000
      6830        61  CHL1      H22B          -19.9559754424       28.8686646467        6.4899050000  MEMB      61              0.0000000000
      6831        61  CHL1      C23           -18.8452381707       27.9165222957        4.8985050000  MEMB      61              0.0000000000
      6832        61  CHL1      H23A          -18.3224775334       28.8486478085        4.5948850000  MEMB      61              0.0000000000
      6833        61  CHL1      H23B          -18.0156854497       27.1790522562        4.9464850000  MEMB      61              0.0000000000
      6834        61  CHL1      C24           -19.7457785943       27.3643236033        3.7592050000  MEMB      61              0.0000000000
      6835        61  CHL1      H24A          -20.0301350326       26.3323633830        4.0567250000  MEMB      61              0.0000000000
      6836        61  CHL1      H24B          -20.6333964023       28.0272492387        3.6756650000  MEMB      61              0.0000000000
      6837        61  CHL1      C25           -19.1025542543       27.3870718367        2.3166450000  MEMB      61              0.0000000000
      6838        61  CHL1      H25           -18.2204457003       26.7123740850        2.2853650000  MEMB      61              0.0000000000
      6839        61  CHL1      C26           -20.1589460084       26.8023879878        1.2978850000  MEMB      61              0.0000000000
      6840        61  CHL1      H26A          -20.4816773101       25.7836682984        1.6018250000  MEMB      61              0.0000000000
      6841        61  CHL1      H26B          -21.0877924560       27.4117366163        1.3143550000  MEMB      61              0.0000000000
      6842        61  CHL1      H26C          -19.8993824455       26.7080223131        0.2217650000  MEMB      61              0.0000000000
      6843        61  CHL1      C27           -18.8045927983       28.8586859304        1.7764750000  MEMB      61              0.0000000000
      6844        61  CHL1      H27A          -18.5999273600       28.8347286085        0.6847450000  MEMB      61              0.0000000000
      6845        61  CHL1      H27B          -19.6882914028       29.5054104103        1.9639150000  MEMB      61              0.0000000000
      6846        61  CHL1      H27C          -17.9691362318       29.2711683502        2.3816050000  MEMB      61              0.0000000000
      6847        62  CHL1      C3             14.7987321277       29.3933865111       17.2781600000  MEMB      62              0.0000000000
      6848        62  CHL1      H3             15.2748936495       30.3286486273       16.9136700000  MEMB      62              0.0000000000
      6849        62  CHL1      O3             14.8921848723       29.3820268889       18.7218400000  MEMB      62              0.0000000000
      6850        62  CHL1      H3'            15.7863544643       29.1447613613       18.9783000000  MEMB      62              0.0000000000
      6851        62  CHL1      C4             13.3742245400       29.3851238013       16.8547400000  MEMB      62              0.0000000000
      6852        62  CHL1      H4A            12.8543605335       28.4840848180       17.2448700000  MEMB      62              0.0000000000
      6853        62  CHL1      H4B            12.7685916289       30.2663736790       17.1562800000  MEMB      62              0.0000000000
      6854        62  CHL1      C5             13.2799227003       29.3369001771       15.3304000000  MEMB      62              0.0000000000
      6855        62  CHL1      C6             12.3648071953       30.0365736598       14.6586200000  MEMB      62              0.0000000000
      6856        62  CHL1      H6             11.6848633973       30.7363402353       15.1665700000  MEMB      62              0.0000000000
      6857        62  CHL1      C7             12.2193393824       29.9770779421       13.0649600000  MEMB      62              0.0000000000
      6858        62  CHL1      H7A            11.1650985160       30.1112289005       12.7410700000  MEMB      62              0.0000000000
      6859        62  CHL1      H7B            12.7582025405       30.8823663064       12.7122500000  MEMB      62              0.0000000000
      6860        62  CHL1      C8             12.7833557618       28.7299812019       12.5022900000  MEMB      62              0.0000000000
      6861        62  CHL1      H8             12.0040722091       27.9694660466       12.7229000000  MEMB      62              0.0000000000
      6862        62  CHL1      C14            13.0013995253       28.7794449909       11.0357100000  MEMB      62              0.0000000000
      6863        62  CHL1      H14            13.6771614583       29.6510197209       10.9015200000  MEMB      62              0.0000000000
      6864        62  CHL1      C15            11.8146412367       29.3052203041       10.1392400000  MEMB      62              0.0000000000
      6865        62  CHL1      H15A           10.9351786437       28.6622010317       10.3569100000  MEMB      62              0.0000000000
      6866        62  CHL1      H15B           11.6696349386       30.3965474034       10.2886200000  MEMB      62              0.0000000000
      6867        62  CHL1      C16            12.3812615179       28.9653535994        8.7768600000  MEMB      62              0.0000000000
      6868        62  CHL1      H16A           11.5676419516       28.4226934981        8.2497500000  MEMB      62              0.0000000000
      6869        62  CHL1      H16B           12.6583770617       29.9283628653        8.2971300000  MEMB      62              0.0000000000
      6870        62  CHL1      C17            13.6781190770       28.0840911624        8.9416300000  MEMB      62              0.0000000000
      6871        62  CHL1      H17            14.5217410504       28.7966711226        8.8197100000  MEMB      62              0.0000000000
      6872        62  CHL1      C13            13.6210353686       27.5641705028       10.3028500000  MEMB      62              0.0000000000
      6873        62  CHL1      C18            12.6036568729       26.3177229056       10.3308300000  MEMB      62              0.0000000000
      6874        62  CHL1      H18A           11.7687718672       26.5310792232        9.6295700000  MEMB      62              0.0000000000
      6875        62  CHL1      H18B           13.2761791941       25.5534739412        9.8859100000  MEMB      62              0.0000000000
      6876        62  CHL1      H18C           12.3265516484       25.9583491913       11.3449300000  MEMB      62              0.0000000000
      6877        62  CHL1      C12            14.9818893962       27.2468545309       11.0158600000  MEMB      62              0.0000000000
      6878        62  CHL1      H12A           15.3887732377       26.2768974279       10.6581400000  MEMB      62              0.0000000000
      6879        62  CHL1      H12B           15.6447932373       28.0895248949       10.7247200000  MEMB      62              0.0000000000
      6880        62  CHL1      C11            14.7929637603       27.1383639755       12.5243100000  MEMB      62              0.0000000000
      6881        62  CHL1      H11A           14.2217213852       26.2043895867       12.7132600000  MEMB      62              0.0000000000
      6882        62  CHL1      H11B           15.8349464848       27.1050261232       12.9083300000  MEMB      62              0.0000000000
      6883        62  CHL1      C9             14.1174578468       28.3456215153       13.1584800000  MEMB      62              0.0000000000
      6884        62  CHL1      H9             14.7746598462       29.2132181346       12.9356100000  MEMB      62              0.0000000000
      6885        62  CHL1      C10            14.1242769384       28.2055653624       14.6983000000  MEMB      62              0.0000000000
      6886        62  CHL1      C19            13.6250275324       26.7658369981       15.1581400000  MEMB      62              0.0000000000
      6887        62  CHL1      H19A           13.3202865599       26.7233399690       16.2256800000  MEMB      62              0.0000000000
      6888        62  CHL1      H19B           12.6240133440       26.6170578720       14.6997300000  MEMB      62              0.0000000000
      6889        62  CHL1      H19C           14.2957860626       25.9228572803       14.8865000000  MEMB      62              0.0000000000
      6890        62  CHL1      C1             15.5967282002       28.3326633489       15.2501800000  MEMB      62              0.0000000000
      6891        62  CHL1      H1A            16.2783895906       27.5173050437       14.9263800000  MEMB      62              0.0000000000
      6892        62  CHL1      H1B            15.8943476990       29.3308050845       14.8635800000  MEMB      62              0.0000000000
      6893        62  CHL1      C2             15.6647067891       28.2690333720       16.7905600000  MEMB      62              0.0000000000
      6894        62  CHL1      H2A            16.7177894648       28.3306053063       17.1391800000  MEMB      62              0.0000000000
      6895        62  CHL1      H2B            15.2060434167       27.3141266314       17.1254000000  MEMB      62              0.0000000000
      6896        62  CHL1      C20            13.9689148524       27.0439574299        7.7487100000  MEMB      62              0.0000000000
      6897        62  CHL1      H20            13.0225059202       26.4830560347        7.5937900000  MEMB      62              0.0000000000
      6898        62  CHL1      C21            15.0582333296       26.0100029836        8.0082600000  MEMB      62              0.0000000000
      6899        62  CHL1      H21A           14.8537444219       25.0863772261        8.5908600000  MEMB      62              0.0000000000
      6900        62  CHL1      H21B           15.9354918404       26.6201353936        8.3123500000  MEMB      62              0.0000000000
      6901        62  CHL1      H21C           15.2780969443       25.5497492090        7.0212700000  MEMB      62              0.0000000000
      6902        62  CHL1      C22            14.0122572510       27.7985169058        6.3407100000  MEMB      62              0.0000000000
      6903        62  CHL1      H22A           12.9715094174       28.1872443127        6.3475700000  MEMB      62              0.0000000000
      6904        62  CHL1      H22B           14.7659899337       28.6050529644        6.2153600000  MEMB      62              0.0000000000
      6905        62  CHL1      C23            13.9384304366       26.8555969455        5.1299800000  MEMB      62              0.0000000000
      6906        62  CHL1      H23A           14.8268953699       26.1887365368        5.1456700000  MEMB      62              0.0000000000
      6907        62  CHL1      H23B           13.0692042754       26.1668239457        5.1960100000  MEMB      62              0.0000000000
      6908        62  CHL1      C24            14.0965652799       27.5160472892        3.8308000000  MEMB      62              0.0000000000
      6909        62  CHL1      H24A           13.2064580067       28.1774752749        3.7633200000  MEMB      62              0.0000000000
      6910        62  CHL1      H24B           14.9348754053       28.2445827742        3.8027700000  MEMB      62              0.0000000000
      6911        62  CHL1      C25            14.2225795382       26.5971731057        2.5856800000  MEMB      62              0.0000000000
      6912        62  CHL1      H25            15.3035246860       26.3643061954        2.4777500000  MEMB      62              0.0000000000
      6913        62  CHL1      C26            13.5039509714       25.2472469810        2.6012600000  MEMB      62              0.0000000000
      6914        62  CHL1      H26A           13.7717236626       24.6427616565        3.4941300000  MEMB      62              0.0000000000
      6915        62  CHL1      H26B           12.4010294278       25.3484862201        2.6886400000  MEMB      62              0.0000000000
      6916        62  CHL1      H26C           13.8700581039       24.5400616499        1.8265600000  MEMB      62              0.0000000000
      6917        62  CHL1      C27            13.7729279936       27.3415674911        1.2955800000  MEMB      62              0.0000000000
      6918        62  CHL1      H27A           13.8243205122       26.6227134389        0.4500400000  MEMB      62              0.0000000000
      6919        62  CHL1      H27B           12.7111492610       27.6625541467        1.2330900000  MEMB      62              0.0000000000
      6920        62  CHL1      H27C           14.3292258448       28.2626193568        1.0189600000  MEMB      62              0.0000000000
      6921        63  SAPI      C12            19.6282345569       25.0653439801       23.3012380963  MEMB      63              0.0000000000
      6922        63  SAPI      H2             19.3624782444       24.0832955218       22.8548353016  MEMB      63              0.0000000000
      6923        63  SAPI      O2             18.8859930643       26.1048203699       22.7135963560  MEMB      63              0.0000000000
      6924        63  SAPI      HO2            19.1922163391       26.9554884460       23.0363826332  MEMB      63              0.0000000000
      6925        63  SAPI      C13            19.2037921223       24.8751507156       24.7849999494  MEMB      63              0.0000000000
      6926        63  SAPI      H3             19.6421137018       23.9370507348       25.1876947021  MEMB      63              0.0000000000
      6927        63  SAPI      O3             17.8031169625       24.6338500937       24.8421237894  MEMB      63              0.0000000000
      6928        63  SAPI      HO3            17.6200814645       24.2084628076       24.0012052212  MEMB      63              0.0000000000
      6929        63  SAPI      C14            19.5958135863       26.0476610799       25.6455777936  MEMB      63              0.0000000000
      6930        63  SAPI      H4             19.0285243867       26.9786488211       25.4316487835  MEMB      63              0.0000000000
      6931        63  SAPI      O4             19.2789752300       25.7482279080       27.0057702475  MEMB      63              0.0000000000
      6932        63  SAPI      HO4            19.3148495542       26.6024755271       27.4423183411  MEMB      63              0.0000000000
      6933        63  SAPI      C15            21.1451952540       26.2892923202       25.5876977564  MEMB      63              0.0000000000
      6934        63  SAPI      H5             21.6632035017       25.3593701825       25.9058693518  MEMB      63              0.0000000000
      6935        63  SAPI      O5             21.5622688168       27.4145503407       26.3889690609  MEMB      63              0.0000000000
      6936        63  SAPI      HO5            22.5151163436       27.3750116642       26.4990521864  MEMB      63              0.0000000000
      6937        63  SAPI      C16            21.4945668779       26.4839567633       24.0539163649  MEMB      63              0.0000000000
      6938        63  SAPI      H6             20.8995607652       27.3614893253       23.7219142878  MEMB      63              0.0000000000
      6939        63  SAPI      O6             22.8322709806       26.8246726356       23.8417530487  MEMB      63              0.0000000000
      6940        63  SAPI      HO6            22.6940184584       27.3577974137       23.0554553622  MEMB      63              0.0000000000
      6941        63  SAPI      C11            21.1072987420       25.3039948131       23.2101996632  MEMB      63              0.0000000000
      6942        63  SAPI      H1             21.5489288053       24.3939547144       23.6696677166  MEMB      63              0.0000000000
      6943        63  SAPI      P              22.2340191531       24.3264951227       21.0091606888  MEMB      63              0.0000000000
      6944        63  SAPI      O13            21.1790668183       23.2206858220       20.9950613625  MEMB      63              0.0000000000
      6945        63  SAPI      O14            23.5596186970       24.0044758079       21.5938652697  MEMB      63              0.0000000000
      6946        63  SAPI      O12            21.4644066137       25.5817892983       21.8621607002  MEMB      63              0.0000000000
      6947        63  SAPI      O11            22.5157703987       24.8361951679       19.5418976774  MEMB      63              0.0000000000
      6948        63  SAPI      C1             22.1602856491       26.1471143360       19.0793060674  MEMB      63              0.0000000000
      6949        63  SAPI      HA             22.2991452854       26.9393176487       19.8457608668  MEMB      63              0.0000000000
      6950        63  SAPI      HB             22.8750911361       26.4862654476       18.2993377888  MEMB      63              0.0000000000
      6951        63  SAPI      C2             20.8533156457       26.1076477325       18.3064792533  MEMB      63              0.0000000000
      6952        63  SAPI      HS             20.0039940723       25.8963588546       18.9908262777  MEMB      63              0.0000000000
      6953        63  SAPI      O21            20.9142706452       25.0987964912       17.2875204290  MEMB      63              0.0000000000
      6954        63  SAPI      C21            19.7737629499       24.6833609849       16.8178838795  MEMB      63              0.0000000000
      6955        63  SAPI      O22            18.6565571033       24.9693647190       17.2565941074  MEMB      63              0.0000000000
      6956        63  SAPI      C22            20.0043023860       23.8582226318       15.5328587208  MEMB      63              0.0000000000
      6957        63  SAPI      H2R            20.8169908367       24.3129730294       14.9270037197  MEMB      63              0.0000000000
      6958        63  SAPI      H2S            20.2762035269       22.8143923322       15.7989591421  MEMB      63              0.0000000000
      6959        63  SAPI      C3             20.5548850397       27.4327383193       17.6120689840  MEMB      63              0.0000000000
      6960        63  SAPI      HX             20.3670992520       28.2243313956       18.3686652978  MEMB      63              0.0000000000
      6961        63  SAPI      HY             19.6236112912       27.2825781533       17.0251258152  MEMB      63              0.0000000000
      6962        63  SAPI      O31            21.6276602385       27.8648800748       16.7791694513  MEMB      63              0.0000000000
      6963        63  SAPI      C31            21.4294742817       27.9871544823       15.4397130476  MEMB      63              0.0000000000
      6964        63  SAPI      O32            20.3497932026       27.9288309457       14.8898009959  MEMB      63              0.0000000000
      6965        63  SAPI      C32            22.8155210009       28.1603242391       14.7448955445  MEMB      63              0.0000000000
      6966        63  SAPI      H2X            23.2389967234       27.1489024027       14.5659676856  MEMB      63              0.0000000000
      6967        63  SAPI      H2Y            23.6247300848       28.5099354088       15.4211157318  MEMB      63              0.0000000000
      6968        63  SAPI      C23            18.7548379007       23.8631255080       14.6694093529  MEMB      63              0.0000000000
      6969        63  SAPI      H3R            18.5453977924       24.9026567386       14.3380021224  MEMB      63              0.0000000000
      6970        63  SAPI      H3S            17.8625590279       23.5784396452       15.2669990296  MEMB      63              0.0000000000
      6971        63  SAPI      C24            18.9311930557       22.9792928921       13.4905965253  MEMB      63              0.0000000000
      6972        63  SAPI      H4R            18.8540651964       21.9574405711       13.9197705618  MEMB      63              0.0000000000
      6973        63  SAPI      H4S            19.9914346158       23.2149004384       13.2567208902  MEMB      63              0.0000000000
      6974        63  SAPI      C25            18.0503540719       23.1263204318       12.3141765670  MEMB      63              0.0000000000
      6975        63  SAPI      H5R            17.0534158712       22.6724846314       12.4149087680  MEMB      63              0.0000000000
      6976        63  SAPI      C26            18.2848316210       23.8680726437       11.1489187219  MEMB      63              0.0000000000
      6977        63  SAPI      H6R            17.6120855953       23.7012872505       10.2947551442  MEMB      63              0.0000000000
      6978        63  SAPI      C27            19.5136478960       24.6747873193       10.8401358824  MEMB      63              0.0000000000
      6979        63  SAPI      H7R            19.7209325692       24.6436177196        9.7490898534  MEMB      63              0.0000000000
      6980        63  SAPI      H7S            20.4514266102       24.2422751369       11.2498010831  MEMB      63              0.0000000000
      6981        63  SAPI      C28            19.5322364880       26.0766197133       11.3886507854  MEMB      63              0.0000000000
      6982        63  SAPI      H8R            19.6479152696       26.2584498500       12.4673334008  MEMB      63              0.0000000000
      6983        63  SAPI      C29            19.4231233925       27.2340210380       10.7482442968  MEMB      63              0.0000000000
      6984        63  SAPI      H9R            19.3007192987       28.1288477304       11.3761801553  MEMB      63              0.0000000000
      6985        63  SAPI      C210           19.3042879288       27.4422511736        9.2696048442  MEMB      63              0.0000000000
      6986        63  SAPI      H10R           18.3058940768       27.9212894404        9.1798657508  MEMB      63              0.0000000000
      6987        63  SAPI      H10S           19.2212227913       26.4950060644        8.6950198391  MEMB      63              0.0000000000
      6988        63  SAPI      C211           20.4112632363       28.3617975685        8.7436146417  MEMB      63              0.0000000000
      6989        63  SAPI      H11R           20.6342683635       29.2554831845        9.3449424233  MEMB      63              0.0000000000
      6990        63  SAPI      C212           20.9649374519       28.3280721654        7.5688718246  MEMB      63              0.0000000000
      6991        63  SAPI      H12R           21.8338615318       28.9600277650        7.3330692937  MEMB      63              0.0000000000
      6992        63  SAPI      C213           20.6077357454       27.3417728701        6.4734762909  MEMB      63              0.0000000000
      6993        63  SAPI      H13R           20.5964933525       27.9266309248        5.5289461947  MEMB      63              0.0000000000
      6994        63  SAPI      H13S           19.5191219838       27.1236056467        6.5140241357  MEMB      63              0.0000000000
      6995        63  SAPI      C214           21.5569704198       26.1901782884        6.4602071001  MEMB      63              0.0000000000
      6996        63  SAPI      H14R           21.3861606710       25.4571143671        7.2623548153  MEMB      63              0.0000000000
      6997        63  SAPI      C215           22.4550249041       25.9837545920        5.4426634902  MEMB      63              0.0000000000
      6998        63  SAPI      H15R           23.0793834974       25.0809113064        5.5137277630  MEMB      63              0.0000000000
      6999        63  SAPI      C216           22.6552678447       26.8004430637        4.2035307582  MEMB      63              0.0000000000
      7000        63  SAPI      H16R           23.7563352162       26.8229099965        4.0570142777  MEMB      63              0.0000000000
      7001        63  SAPI      H16S           22.4569569374       27.8694016232        4.4322696384  MEMB      63              0.0000000000
      7002        63  SAPI      C217           22.0346897219       26.2746746129        2.8841006218  MEMB      63              0.0000000000
      7003        63  SAPI      H17R           20.9797523978       25.9787631912        3.0681239911  MEMB      63              0.0000000000
      7004        63  SAPI      H17S           22.5481211057       25.3233420561        2.6278267027  MEMB      63              0.0000000000
      7005        63  SAPI      C218           22.1701343267       27.2042991583        1.6303536951  MEMB      63              0.0000000000
      7006        63  SAPI      H18R           21.5735148936       26.8135603761        0.7784804114  MEMB      63              0.0000000000
      7007        63  SAPI      H18S           23.2424791785       27.3106806211        1.3600196382  MEMB      63              0.0000000000
      7008        63  SAPI      C219           21.6270045629       28.6334899655        1.8585437792  MEMB      63              0.0000000000
      7009        63  SAPI      H19R           21.8730731020       29.1985311183        0.9341525045  MEMB      63              0.0000000000
      7010        63  SAPI      H19S           22.2024739910       29.1115008661        2.6799218124  MEMB      63              0.0000000000
      7011        63  SAPI      C220           20.1677386573       28.7944681065        2.1114149517  MEMB      63              0.0000000000
      7012        63  SAPI      H20R           19.8358237961       28.0698405502        2.8854087946  MEMB      63              0.0000000000
      7013        63  SAPI      H20S           19.5602535624       28.6131831188        1.1990445879  MEMB      63              0.0000000000
      7014        63  SAPI      H20T           19.9915629120       29.8621014727        2.3632910545  MEMB      63              0.0000000000
      7015        63  SAPI      C33            22.6440293291       29.0071784896       13.4387408952  MEMB      63              0.0000000000
      7016        63  SAPI      H3X            21.9299866462       29.8576241016       13.4734755567  MEMB      63              0.0000000000
      7017        63  SAPI      H3Y            22.0823573524       28.4082741208       12.6903029732  MEMB      63              0.0000000000
      7018        63  SAPI      C34            24.0276542554       29.3818903561       12.8638155730  MEMB      63              0.0000000000
      7019        63  SAPI      H4X            24.9032005915       28.7645518347       13.1581502065  MEMB      63              0.0000000000
      7020        63  SAPI      H4Y            24.3611681174       30.3194837128       13.3577877630  MEMB      63              0.0000000000
      7021        63  SAPI      C35            24.0525591966       29.7213356640       11.3038297619  MEMB      63              0.0000000000
      7022        63  SAPI      H5X            25.1329897621       29.9579977015       11.1990336159  MEMB      63              0.0000000000
      7023        63  SAPI      H5Y            23.4865410037       30.6664577361       11.1599939331  MEMB      63              0.0000000000
      7024        63  SAPI      C36            23.6094853648       28.5429408027       10.5134604119  MEMB      63              0.0000000000
      7025        63  SAPI      H6X            23.6173617626       28.8271181773        9.4394485589  MEMB      63              0.0000000000
      7026        63  SAPI      H6Y            22.5968839840       28.2319934879       10.8485298497  MEMB      63              0.0000000000
      7027        63  SAPI      C37            24.5690994810       27.3754190288       10.4788537211  MEMB      63              0.0000000000
      7028        63  SAPI      H7X            24.8466835577       27.1121172633       11.5218971528  MEMB      63              0.0000000000
      7029        63  SAPI      H7Y            25.5495876996       27.6821905397       10.0559401741  MEMB      63              0.0000000000
      7030        63  SAPI      C38            24.0617618032       26.0907811063        9.7542927819  MEMB      63              0.0000000000
      7031        63  SAPI      H8X            24.0267916048       26.3072747099        8.6651510579  MEMB      63              0.0000000000
      7032        63  SAPI      H8Y            22.9791482855       26.0000393854        9.9867469692  MEMB      63              0.0000000000
      7033        63  SAPI      C39            24.6755499642       24.7900494733       10.2416512581  MEMB      63              0.0000000000
      7034        63  SAPI      H9X            24.4801615782       24.5756307913       11.3141103440  MEMB      63              0.0000000000
      7035        63  SAPI      H9Y            25.7857306240       24.8182875090       10.2096743732  MEMB      63              0.0000000000
      7036        63  SAPI      C310           24.0274189221       23.5785177522        9.5203628371  MEMB      63              0.0000000000
      7037        63  SAPI      H10X           22.9229478977       23.5005996721        9.6119789087  MEMB      63              0.0000000000
      7038        63  SAPI      H10Y           24.4508603404       22.6870528543       10.0305670933  MEMB      63              0.0000000000
      7039        63  SAPI      C311           24.2612178849       23.4526280717        8.0163957631  MEMB      63              0.0000000000
      7040        63  SAPI      H11X           25.3583766271       23.3064257925        7.9205388222  MEMB      63              0.0000000000
      7041        63  SAPI      H11Y           23.9287366082       24.4360840564        7.6206788914  MEMB      63              0.0000000000
      7042        63  SAPI      C312           23.4819668854       22.3818199878        7.2180868655  MEMB      63              0.0000000000
      7043        63  SAPI      H12X           23.5225412034       21.4506253766        7.8226953845  MEMB      63              0.0000000000
      7044        63  SAPI      H12Y           23.8753355571       22.2056756131        6.1940973748  MEMB      63              0.0000000000
      7045        63  SAPI      C313           21.9199877785       22.7344151451        7.1339570043  MEMB      63              0.0000000000
      7046        63  SAPI      H13X           21.7535143951       23.7345545222        6.6797228900  MEMB      63              0.0000000000
      7047        63  SAPI      H13Y           21.5550727612       22.6397216737        8.1790360413  MEMB      63              0.0000000000
      7048        63  SAPI      C314           21.0486939084       21.8149816980        6.2192373442  MEMB      63              0.0000000000
      7049        63  SAPI      H14X           20.0849220032       21.7115016395        6.7621519167  MEMB      63              0.0000000000
      7050        63  SAPI      H14Y           21.5808966472       20.8399334178        6.2002061304  MEMB      63              0.0000000000
      7051        63  SAPI      C315           20.8930439113       22.3421908625        4.8437579091  MEMB      63              0.0000000000
      7052        63  SAPI      H15X           21.8271568950       22.6504627250        4.3273057207  MEMB      63              0.0000000000
      7053        63  SAPI      H15Y           20.2475193713       23.2370068288        4.9738481598  MEMB      63              0.0000000000
      7054        63  SAPI      C316           20.3454099841       21.3061998175        3.7366360846  MEMB      63              0.0000000000
      7055        63  SAPI      H16X           19.8251855839       21.8565259380        2.9237217647  MEMB      63              0.0000000000
      7056        63  SAPI      H16Y           19.6119273993       20.6722675051        4.2792709133  MEMB      63              0.0000000000
      7057        63  SAPI      C317           21.3984357623       20.3319033866        3.1110314817  MEMB      63              0.0000000000
      7058        63  SAPI      H17X           22.1298480260       19.9393534869        3.8494502340  MEMB      63              0.0000000000
      7059        63  SAPI      H17Y           21.9769599096       21.1078525576        2.5655649401  MEMB      63              0.0000000000
      7060        63  SAPI      C318           20.9487080977       19.3451113141        2.0107029809  MEMB      63              0.0000000000
      7061        63  SAPI      H18X           21.6905991030       19.3574254745        1.1838006854  MEMB      63              0.0000000000
      7062        63  SAPI      H18Y           19.9409325241       19.6811891446        1.6854944094  MEMB      63              0.0000000000
      7063        63  SAPI      H18Z           20.9456259122       18.3015701839        2.3919284159  MEMB      63              0.0000000000
      7064        64  CHL1      C3            -31.0814666106      -12.8561683456       17.3101800000  MEMB      64              0.0000000000
      7065        64  CHL1      H3            -31.4433242914      -11.8884270337       16.9016900000  MEMB      64              0.0000000000
      7066        64  CHL1      O3            -30.8305891894      -12.7989222544       18.6898200000  MEMB      64              0.0000000000
      7067        64  CHL1      H3'           -29.8859727799      -12.6446875351       18.7640300000  MEMB      64              0.0000000000
      7068        64  CHL1      C4            -32.2054380959      -13.8890550880       16.9706400000  MEMB      64              0.0000000000
      7069        64  CHL1      H4A           -31.8987281664      -14.9229028779       17.2378500000  MEMB      64              0.0000000000
      7070        64  CHL1      H4B           -33.0612739182      -13.6461305685       17.6361000000  MEMB      64              0.0000000000
      7071        64  CHL1      C5            -32.5639002568      -13.7247456112       15.4732300000  MEMB      64              0.0000000000
      7072        64  CHL1      C6            -33.6930278192      -13.2042920781       15.0556300000  MEMB      64              0.0000000000
      7073        64  CHL1      H6            -34.3999700422      -12.8768760384       15.8321800000  MEMB      64              0.0000000000
      7074        64  CHL1      C7            -34.0078856051      -12.9257495926       13.5840100000  MEMB      64              0.0000000000
      7075        64  CHL1      H7A           -35.0692436875      -13.2246448815       13.4480400000  MEMB      64              0.0000000000
      7076        64  CHL1      H7B           -33.9121913587      -11.8483823387       13.3301700000  MEMB      64              0.0000000000
      7077        64  CHL1      C8            -33.1267166236      -13.7244862595       12.5914400000  MEMB      64              0.0000000000
      7078        64  CHL1      H8            -33.3689809302      -14.7974446636       12.4352700000  MEMB      64              0.0000000000
      7079        64  CHL1      C14           -33.2666369844      -13.1718755684       11.1663400000  MEMB      64              0.0000000000
      7080        64  CHL1      H14           -32.8879335775      -12.1285944401       11.2160900000  MEMB      64              0.0000000000
      7081        64  CHL1      C15           -34.6555274030      -13.0610867542       10.4913300000  MEMB      64              0.0000000000
      7082        64  CHL1      H15A          -35.2159184465      -14.0197842385       10.5256100000  MEMB      64              0.0000000000
      7083        64  CHL1      H15B          -35.2717704482      -12.2477933603       10.9308000000  MEMB      64              0.0000000000
      7084        64  CHL1      C16           -34.3045525818      -12.7879243546        8.9881800000  MEMB      64              0.0000000000
      7085        64  CHL1      H16A          -34.8856897448      -13.4521362069        8.3133300000  MEMB      64              0.0000000000
      7086        64  CHL1      H16B          -34.3992911421      -11.7653744915        8.5642200000  MEMB      64              0.0000000000
      7087        64  CHL1      C17           -32.7628827974      -13.0416846273        8.8420300000  MEMB      64              0.0000000000
      7088        64  CHL1      H17           -32.2899933192      -12.0370226557        8.8788000000  MEMB      64              0.0000000000
      7089        64  CHL1      C13           -32.3170572086      -13.7595603087       10.0828500000  MEMB      64              0.0000000000
      7090        64  CHL1      C18           -32.4960885260      -15.3167829750        9.8944400000  MEMB      64              0.0000000000
      7091        64  CHL1      H18A          -31.7935152256      -15.7709416745        9.1633800000  MEMB      64              0.0000000000
      7092        64  CHL1      H18B          -32.3414339771      -15.8387616974       10.8629100000  MEMB      64              0.0000000000
      7093        64  CHL1      H18C          -33.5633198100      -15.3955555238        9.5958700000  MEMB      64              0.0000000000
      7094        64  CHL1      C12           -30.9152850960      -13.3540841576       10.5535600000  MEMB      64              0.0000000000
      7095        64  CHL1      H12A          -30.0517476189      -13.7511194656        9.9782400000  MEMB      64              0.0000000000
      7096        64  CHL1      H12B          -30.8815863328      -12.2506611276       10.6785700000  MEMB      64              0.0000000000
      7097        64  CHL1      C11           -30.6179718019      -14.0252655695       11.9596900000  MEMB      64              0.0000000000
      7098        64  CHL1      H11A          -30.5640022291      -15.1250319804       11.8116700000  MEMB      64              0.0000000000
      7099        64  CHL1      H11B          -29.6764997690      -13.5753929838       12.3412100000  MEMB      64              0.0000000000
      7100        64  CHL1      C9            -31.6792674305      -13.5695020570       13.0266100000  MEMB      64              0.0000000000
      7101        64  CHL1      H9            -31.3595820991      -12.5163858659       12.8747100000  MEMB      64              0.0000000000
      7102        64  CHL1      C10           -31.4029015365      -14.0289902923       14.4852600000  MEMB      64              0.0000000000
      7103        64  CHL1      C19           -31.2726222540      -15.5850907741       14.5115700000  MEMB      64              0.0000000000
      7104        64  CHL1      H19A          -30.5512532673      -15.9821330882       13.7657100000  MEMB      64              0.0000000000
      7105        64  CHL1      H19B          -31.1502488458      -15.8844016525       15.5744700000  MEMB      64              0.0000000000
      7106        64  CHL1      H19C          -32.2357095138      -16.1101316036       14.3352000000  MEMB      64              0.0000000000
      7107        64  CHL1      C1            -30.0956579570      -13.4044972870       14.9972500000  MEMB      64              0.0000000000
      7108        64  CHL1      H1A           -29.1858891486      -13.8616941524       14.5527000000  MEMB      64              0.0000000000
      7109        64  CHL1      H1B           -30.1743686894      -12.3351756971       14.7062600000  MEMB      64              0.0000000000
      7110        64  CHL1      C2            -29.8550972512      -13.3273485857       16.5099200000  MEMB      64              0.0000000000
      7111        64  CHL1      H2A           -28.9709503115      -12.6827508945       16.7025700000  MEMB      64              0.0000000000
      7112        64  CHL1      H2B           -29.5404801367      -14.3570933370       16.7837100000  MEMB      64              0.0000000000
      7113        64  CHL1      C20           -32.3388913678      -13.5899594326        7.4514500000  MEMB      64              0.0000000000
      7114        64  CHL1      H20           -32.6747634230      -14.6417621286        7.3280400000  MEMB      64              0.0000000000
      7115        64  CHL1      C21           -30.8063381385      -13.5803399026        7.4164000000  MEMB      64              0.0000000000
      7116        64  CHL1      H21A          -30.4555780539      -14.3313262335        8.1562100000  MEMB      64              0.0000000000
      7117        64  CHL1      H21B          -30.4750404060      -12.5536912434        7.6820200000  MEMB      64              0.0000000000
      7118        64  CHL1      H21C          -30.3904003896      -13.7633861292        6.4025900000  MEMB      64              0.0000000000
      7119        64  CHL1      C22           -32.9204713879      -12.7571611164        6.3139100000  MEMB      64              0.0000000000
      7120        64  CHL1      H22A          -34.0068883247      -12.5468729150        6.4129500000  MEMB      64              0.0000000000
      7121        64  CHL1      H22B          -32.4416248892      -11.7553560674        6.3515600000  MEMB      64              0.0000000000
      7122        64  CHL1      C23           -32.6334614596      -13.2036449281        4.8523000000  MEMB      64              0.0000000000
      7123        64  CHL1      H23A          -32.6591787170      -12.2486428121        4.2851700000  MEMB      64              0.0000000000
      7124        64  CHL1      H23B          -31.6333857269      -13.6733158796        4.7357300000  MEMB      64              0.0000000000
      7125        64  CHL1      C24           -33.8013725411      -14.0284770538        4.2082300000  MEMB      64              0.0000000000
      7126        64  CHL1      H24A          -33.5710424261      -15.0849300850        4.4635300000  MEMB      64              0.0000000000
      7127        64  CHL1      H24B          -34.7561325045      -13.8624012189        4.7515400000  MEMB      64              0.0000000000
      7128        64  CHL1      C25           -34.0258613051      -13.8098716784        2.7343400000  MEMB      64              0.0000000000
      7129        64  CHL1      H25           -34.1595907765      -12.7404691126        2.4645000000  MEMB      64              0.0000000000
      7130        64  CHL1      C26           -32.9749596683      -14.2841322350        1.7736400000  MEMB      64              0.0000000000
      7131        64  CHL1      H26A          -32.9199586219      -13.8207119132        0.7654100000  MEMB      64              0.0000000000
      7132        64  CHL1      H26B          -31.9901629877      -14.1587820934        2.2724200000  MEMB      64              0.0000000000
      7133        64  CHL1      H26C          -32.9378848002      -15.3822049363        1.6087700000  MEMB      64              0.0000000000
      7134        64  CHL1      C27           -35.2215433446      -14.6832798034        2.4173800000  MEMB      64              0.0000000000
      7135        64  CHL1      H27A          -36.0836630125      -14.3710947771        3.0447600000  MEMB      64              0.0000000000
      7136        64  CHL1      H27B          -35.4702975888      -14.4218262464        1.3666200000  MEMB      64              0.0000000000
      7137        64  CHL1      H27C          -35.0602207914      -15.7668536478        2.6022200000  MEMB      64              0.0000000000
      7138        65  OSM       N              32.7154692304       14.2350373224       22.2962605757  MEMB      65              0.0000000000
      7139        65  OSM       C15            33.5663763517       14.8851578298       23.2880595170  MEMB      65              0.0000000000
      7140        65  OSM       H15A           34.1261524045       14.1271767329       23.8158051461  MEMB      65              0.0000000000
      7141        65  OSM       H15B           32.9983179881       15.3986570857       24.0496555160  MEMB      65              0.0000000000
      7142        65  OSM       H15C           34.2616743024       15.5067210453       22.7434313672  MEMB      65              0.0000000000
      7143        65  OSM       C14            33.5870060753       13.6314235694       21.2044671987  MEMB      65              0.0000000000
      7144        65  OSM       H14A           33.0220609275       12.9676236923       20.5668098342  MEMB      65              0.0000000000
      7145        65  OSM       H14B           34.4749453988       13.1843384426       21.6264606252  MEMB      65              0.0000000000
      7146        65  OSM       H14C           33.9691220604       14.3586625859       20.5033888873  MEMB      65              0.0000000000
      7147        65  OSM       C13            31.9016155582       13.1096876487       22.9814308527  MEMB      65              0.0000000000
      7148        65  OSM       H13A           32.5342922266       12.4525521272       23.5596115311  MEMB      65              0.0000000000
      7149        65  OSM       H13B           31.3522046461       12.5896341723       22.2106570409  MEMB      65              0.0000000000
      7150        65  OSM       H13C           31.1689528554       13.4274848295       23.7084866135  MEMB      65              0.0000000000
      7151        65  OSM       C12            31.7271573996       15.2697903184       21.7534178857  MEMB      65              0.0000000000
      7152        65  OSM       H12A           32.2892107215       16.0962494711       21.3441976015  MEMB      65              0.0000000000
      7153        65  OSM       H12B           31.1851997267       15.5353770398       22.6490437861  MEMB      65              0.0000000000
      7154        65  OSM       C11            30.6967576042       14.7630253570       20.7138689629  MEMB      65              0.0000000000
      7155        65  OSM       H11A           31.2473514201       14.7657390954       19.7489025826  MEMB      65              0.0000000000
      7156        65  OSM       H11B           29.8381139714       15.4610927159       20.6151073303  MEMB      65              0.0000000000
      7157        65  OSM       P              29.3907042377       12.7052409895       19.7596412844  MEMB      65              0.0000000000
      7158        65  OSM       O13            29.3317888461       11.2410481309       19.9635199195  MEMB      65              0.0000000000
      7159        65  OSM       O14            28.0240061829       13.3171202188       19.6447257304  MEMB      65              0.0000000000
      7160        65  OSM       O11            30.2454805433       13.0745600199       18.4913963208  MEMB      65              0.0000000000
      7161        65  OSM       O12            30.1979889498       13.4495407025       20.9032117421  MEMB      65              0.0000000000
      7162        65  OSM       C1S            29.6415155008       12.9863397800       17.1978718409  MEMB      65              0.0000000000
      7163        65  OSM       H1S            28.5473962358       13.1560518382       17.2896421918  MEMB      65              0.0000000000
      7164        65  OSM       H1T            29.9187833469       12.0244255466       16.7160371838  MEMB      65              0.0000000000
      7165        65  OSM       NF             29.4497246682       14.1241120837       15.0675894911  MEMB      65              0.0000000000
      7166        65  OSM       HNF            29.8056431600       13.5971621378       14.2996994133  MEMB      65              0.0000000000
      7167        65  OSM       C2S            30.2637606288       14.1184455301       16.2294771575  MEMB      65              0.0000000000
      7168        65  OSM       H2S            30.2599890651       15.1527721817       16.6350322520  MEMB      65              0.0000000000
      7169        65  OSM       C3S            31.8043931996       13.7445514729       15.9921635383  MEMB      65              0.0000000000
      7170        65  OSM       H3S            31.8526852366       12.6354653341       15.9483806995  MEMB      65              0.0000000000
      7171        65  OSM       O3             32.5162797909       14.3912709651       17.0561939124  MEMB      65              0.0000000000
      7172        65  OSM       HO3            31.8592457362       14.8244349685       17.6059896162  MEMB      65              0.0000000000
      7173        65  OSM       C4S            32.2073561580       14.2881914243       14.6696060031  MEMB      65              0.0000000000
      7174        65  OSM       H4S            32.1870326900       15.3838214623       14.7654269476  MEMB      65              0.0000000000
      7175        65  OSM       C5S            32.6038239910       13.6870123517       13.5670797686  MEMB      65              0.0000000000
      7176        65  OSM       H5S            32.5552861396       12.5890007177       13.5221957712  MEMB      65              0.0000000000
      7177        65  OSM       C6S            33.0429586794       14.3262326581       12.2708373102  MEMB      65              0.0000000000
      7178        65  OSM       H6S            33.9456436128       13.7837505720       11.9170090831  MEMB      65              0.0000000000
      7179        65  OSM       H6T            33.2940780069       15.3937441001       12.4488242781  MEMB      65              0.0000000000
      7180        65  OSM       C7S            31.9482297688       14.2886609766       11.1708726083  MEMB      65              0.0000000000
      7181        65  OSM       H7S            31.0308130897       14.8647322132       11.4174682061  MEMB      65              0.0000000000
      7182        65  OSM       H7T            31.6233600367       13.2464884938       10.9643356576  MEMB      65              0.0000000000
      7183        65  OSM       C8S            32.3561526749       15.0016651564        9.8119404510  MEMB      65              0.0000000000
      7184        65  OSM       H8S            33.3774988965       14.6827714398        9.5128088784  MEMB      65              0.0000000000
      7185        65  OSM       H8T            32.4038350254       16.0823295086       10.0653412468  MEMB      65              0.0000000000
      7186        65  OSM       C9S            31.3347681146       14.8182140203        8.6973300341  MEMB      65              0.0000000000
      7187        65  OSM       H9S            30.3917581141       15.3673636609        8.9058677899  MEMB      65              0.0000000000
      7188        65  OSM       H9T            31.1151800526       13.7348364219        8.5859969265  MEMB      65              0.0000000000
      7189        65  OSM       C10S           31.8972133639       15.3824346831        7.3644380836  MEMB      65              0.0000000000
      7190        65  OSM       H10S           32.8401385295       14.8614454429        7.0928068155  MEMB      65              0.0000000000
      7191        65  OSM       H10T           32.0446440410       16.4758424314        7.4949927668  MEMB      65              0.0000000000
      7192        65  OSM       C11S           30.9255267399       15.1726119599        6.1671801192  MEMB      65              0.0000000000
      7193        65  OSM       H11S           29.9048151970       15.4347790309        6.5189437458  MEMB      65              0.0000000000
      7194        65  OSM       H11T           30.8281265022       14.0739875753        6.0335440184  MEMB      65              0.0000000000
      7195        65  OSM       C12S           31.4293989447       15.8262337116        4.8424820342  MEMB      65              0.0000000000
      7196        65  OSM       H12S           32.5105491445       15.5742027841        4.7987113870  MEMB      65              0.0000000000
      7197        65  OSM       H12T           31.3335193762       16.9039024492        5.0949866527  MEMB      65              0.0000000000
      7198        65  OSM       C13S           30.6552237273       15.4808743975        3.5831756991  MEMB      65              0.0000000000
      7199        65  OSM       H13S           29.9504896069       16.3328782500        3.4747298605  MEMB      65              0.0000000000
      7200        65  OSM       H13T           29.9810232576       14.6096782720        3.7273689077  MEMB      65              0.0000000000
      7201        65  OSM       C14S           31.4394096472       15.2639511608        2.2649773438  MEMB      65              0.0000000000
      7202        65  OSM       H14S           32.0911735807       14.4128870133        2.5568934103  MEMB      65              0.0000000000
      7203        65  OSM       H14T           32.0811457473       16.1708667067        2.2645294734  MEMB      65              0.0000000000
      7204        65  OSM       C15S           30.5335168760       15.0382265816        0.9373756966  MEMB      65              0.0000000000
      7205        65  OSM       H15S           29.6782428527       15.7412872025        1.0297500086  MEMB      65              0.0000000000
      7206        65  OSM       H15T           30.2976403665       13.9531377644        0.9018010155  MEMB      65              0.0000000000
      7207        65  OSM       C16S           31.3925474281       15.3153764590       -0.2986863351  MEMB      65              0.0000000000
      7208        65  OSM       H16S           31.0064553866       14.6803188719       -1.1244929568  MEMB      65              0.0000000000
      7209        65  OSM       H16T           32.4464361206       15.1108577807       -0.0126588085  MEMB      65              0.0000000000
      7210        65  OSM       C17S           31.2631770692       16.7871113252       -0.8355402318  MEMB      65              0.0000000000
      7211        65  OSM       H17S           31.1740695075       17.5158271280       -0.0016619184  MEMB      65              0.0000000000
      7212        65  OSM       H17T           30.3122543945       16.8595369162       -1.4054713589  MEMB      65              0.0000000000
      7213        65  OSM       C18S           32.3469957641       17.3159332166       -1.7546125514  MEMB      65              0.0000000000
      7214        65  OSM       H18S           33.3010060134       16.9831050125       -1.2926474334  MEMB      65              0.0000000000
      7215        65  OSM       H18T           32.1409763422       18.3380301434       -2.1382711056  MEMB      65              0.0000000000
      7216        65  OSM       H18U           32.2710128798       16.7661131527       -2.7170279392  MEMB      65              0.0000000000
      7217        65  OSM       C1F            28.2912423001       14.7686207804       15.0870817234  MEMB      65              0.0000000000
      7218        65  OSM       OF             27.8806041236       15.3591764300       16.0860578122  MEMB      65              0.0000000000
      7219        65  OSM       C2F            27.3397449405       14.8696757435       13.9089595073  MEMB      65              0.0000000000
      7220        65  OSM       H2F            26.9741833315       15.9055435431       13.7426348752  MEMB      65              0.0000000000
      7221        65  OSM       H2G            26.4232239506       14.3228992110       14.2177406437  MEMB      65              0.0000000000
      7222        65  OSM       C3F            28.0524876044       14.1901290520       12.7278142581  MEMB      65              0.0000000000
      7223        65  OSM       H3F            28.4228014265       13.1840722540       13.0194270891  MEMB      65              0.0000000000
      7224        65  OSM       H3G            28.8777023163       14.9133067973       12.5535854662  MEMB      65              0.0000000000
      7225        65  OSM       C4F            27.0833721067       14.0038768850       11.5055713245  MEMB      65              0.0000000000
      7226        65  OSM       H4F            26.4810957342       14.9342562383       11.4282509982  MEMB      65              0.0000000000
      7227        65  OSM       H4G            26.5635373611       13.0562680020       11.7627281036  MEMB      65              0.0000000000
      7228        65  OSM       C5F            27.6773329465       13.9075526241       10.0821223346  MEMB      65              0.0000000000
      7229        65  OSM       H5F            28.1681287337       12.9143436753        9.9985969915  MEMB      65              0.0000000000
      7230        65  OSM       H5G            28.3767190226       14.7588966764        9.9393153023  MEMB      65              0.0000000000
      7231        65  OSM       C6F            26.6417519518       13.9444611135        8.9491796848  MEMB      65              0.0000000000
      7232        65  OSM       H6F            25.7017839706       14.5057157683        9.1383203061  MEMB      65              0.0000000000
      7233        65  OSM       H6G            26.0983748444       12.9962057347        8.7494964207  MEMB      65              0.0000000000
      7234        65  OSM       C7F            27.3024434206       14.4557717581        7.6724941157  MEMB      65              0.0000000000
      7235        65  OSM       H7F            28.2491199321       13.8991913199        7.5041407529  MEMB      65              0.0000000000
      7236        65  OSM       H7G            27.5848850595       15.5301016246        7.6534452914  MEMB      65              0.0000000000
      7237        65  OSM       C8F            26.4484220975       14.2786314340        6.4013426393  MEMB      65              0.0000000000
      7238        65  OSM       H8F            25.8182735137       15.1935258801        6.4155547744  MEMB      65              0.0000000000
      7239        65  OSM       H8G            25.7491904425       13.4455180003        6.6278785731  MEMB      65              0.0000000000
      7240        65  OSM       C9F            27.2926926263       14.2391247736        5.0882949008  MEMB      65              0.0000000000
      7241        65  OSM       H9F            27.9783923123       15.0906834387        4.9672005981  MEMB      65              0.0000000000
      7242        65  OSM       C10F           27.3443812252       13.2523887872        4.1652073632  MEMB      65              0.0000000000
      7243        65  OSM       H10F           27.9877811774       13.4461109376        3.2942826148  MEMB      65              0.0000000000
      7244        65  OSM       C11F           26.7030676229       11.9819364230        4.0419509093  MEMB      65              0.0000000000
      7245        65  OSM       H11F           26.2577594043       11.9686983659        3.0241850148  MEMB      65              0.0000000000
      7246        65  OSM       H11G           25.8267445595       11.8838280673        4.7177861084  MEMB      65              0.0000000000
      7247        65  OSM       C12F           27.6853543603       10.7817851806        4.3627135010  MEMB      65              0.0000000000
      7248        65  OSM       H12F           27.1374636758        9.8152997279        4.3561141178  MEMB      65              0.0000000000
      7249        65  OSM       H12G           28.1240643998       11.0680142272        5.3424718132  MEMB      65              0.0000000000
      7250        65  OSM       C13F           28.7982848425       10.6567038555        3.2861015312  MEMB      65              0.0000000000
      7251        65  OSM       H13F           29.2501621649       11.6663428037        3.1823860635  MEMB      65              0.0000000000
      7252        65  OSM       H13G           28.3688334858       10.3642440366        2.3040844838  MEMB      65              0.0000000000
      7253        65  OSM       C14F           30.0126409400        9.7998947997        3.8336647002  MEMB      65              0.0000000000
      7254        65  OSM       H14F           29.9206390927        8.7562424593        3.4640070984  MEMB      65              0.0000000000
      7255        65  OSM       H14G           29.9555135306        9.7476743552        4.9419645905  MEMB      65              0.0000000000
      7256        65  OSM       C15F           31.4491947229       10.2189008481        3.4587187610  MEMB      65              0.0000000000
      7257        65  OSM       H15F           32.2752601033        9.5465408075        3.7747364263  MEMB      65              0.0000000000
      7258        65  OSM       H15G           31.5672644645       11.2392130772        3.8822078962  MEMB      65              0.0000000000
      7259        65  OSM       C16F           31.7058255568       10.2722927301        1.9052156688  MEMB      65              0.0000000000
      7260        65  OSM       H16F           30.9973535521       10.9257735583        1.3526307284  MEMB      65              0.0000000000
      7261        65  OSM       H16G           31.7746583206        9.2618307171        1.4485419841  MEMB      65              0.0000000000
      7262        65  OSM       C17F           33.0741331000       11.0077606430        1.6257585336  MEMB      65              0.0000000000
      7263        65  OSM       H17F           33.7783237898       10.4607889028        2.2885257257  MEMB      65              0.0000000000
      7264        65  OSM       H17G           33.0973730354       12.0832151284        1.9035697100  MEMB      65              0.0000000000
      7265        65  OSM       C18F           33.4837041784       10.9512532232        0.1104958056  MEMB      65              0.0000000000
      7266        65  OSM       H18F           32.6904165250       11.4281384318       -0.5039929784  MEMB      65              0.0000000000
      7267        65  OSM       H18G           33.6231886460        9.8814101516       -0.1546470204  MEMB      65              0.0000000000
      7268        65  OSM       H18H           34.4622610062       11.4604312764       -0.0217361935  MEMB      65              0.0000000000
      7269        66  SAPS      N              -6.8419575492       32.0520750079       21.4373580811  MEMB      66              0.0000000000
      7270        66  SAPS      HN1            -5.9378794315       31.5444978510       21.5186493176  MEMB      66              0.0000000000
      7271        66  SAPS      HN2            -7.4250337085       31.8020293525       22.2614329640  MEMB      66              0.0000000000
      7272        66  SAPS      HN3            -7.3328753389       31.8895488614       20.5350361138  MEMB      66              0.0000000000
      7273        66  SAPS      C12            -6.5926223911       33.4907103143       21.4426580771  MEMB      66              0.0000000000
      7274        66  SAPS      H12A           -7.4869248423       34.0790998914       21.5855598350  MEMB      66              0.0000000000
      7275        66  SAPS      C13            -5.5494762907       33.8746283171       22.6051953502  MEMB      66              0.0000000000
      7276        66  SAPS      O13A           -5.0395387159       32.9815046452       23.2833632976  MEMB      66              0.0000000000
      7277        66  SAPS      O13B           -5.4162556261       35.1343556982       22.7921788112  MEMB      66              0.0000000000
      7278        66  SAPS      C11            -5.9162620842       33.8517008606       20.1049214988  MEMB      66              0.0000000000
      7279        66  SAPS      H11A           -5.0208539242       33.2192390065       19.9244853595  MEMB      66              0.0000000000
      7280        66  SAPS      H11B           -5.5557443187       34.9018690162       20.0662582573  MEMB      66              0.0000000000
      7281        66  SAPS      P              -6.4985008938       33.9126387891       17.5661130405  MEMB      66              0.0000000000
      7282        66  SAPS      O13            -5.0699602500       33.5897627716       17.4575169383  MEMB      66              0.0000000000
      7283        66  SAPS      O14            -7.4509221269       33.2313294555       16.6629176237  MEMB      66              0.0000000000
      7284        66  SAPS      O12            -6.8519183553       33.6363330187       19.1183998178  MEMB      66              0.0000000000
      7285        66  SAPS      O11            -6.7343488634       35.5119428521       17.5293774247  MEMB      66              0.0000000000
      7286        66  SAPS      C1             -7.7349448886       36.1719093508       18.2661500250  MEMB      66              0.0000000000
      7287        66  SAPS      HA             -8.3630044105       35.4145589002       18.7821757367  MEMB      66              0.0000000000
      7288        66  SAPS      HB             -7.2553807976       36.8588022595       18.9958879189  MEMB      66              0.0000000000
      7289        66  SAPS      C2             -8.7672419510       36.9817696881       17.3711609516  MEMB      66              0.0000000000
      7290        66  SAPS      HS             -9.7098083704       36.8682198518       17.9482185373  MEMB      66              0.0000000000
      7291        66  SAPS      O21            -8.8441736684       36.5547637632       16.0388434663  MEMB      66              0.0000000000
      7292        66  SAPS      C21            -9.6075948712       35.5816436882       15.8400324465  MEMB      66              0.0000000000
      7293        66  SAPS      O22            -9.9856346035       34.7725139873       16.6618577515  MEMB      66              0.0000000000
      7294        66  SAPS      C22           -10.2581448877       35.7650665759       14.4084768014  MEMB      66              0.0000000000
      7295        66  SAPS      H2R           -10.9974157051       34.9482684476       14.2648094692  MEMB      66              0.0000000000
      7296        66  SAPS      H2S           -10.8266419837       36.7171245264       14.3397898872  MEMB      66              0.0000000000
      7297        66  SAPS      C3             -8.5043575205       38.5204283814       17.3298105752  MEMB      66              0.0000000000
      7298        66  SAPS      HX             -8.6294238511       38.9008626003       18.3661257767  MEMB      66              0.0000000000
      7299        66  SAPS      HY             -9.1861603145       38.9186367884       16.5482119527  MEMB      66              0.0000000000
      7300        66  SAPS      O31            -7.1362356018       38.8478127173       17.0004993657  MEMB      66              0.0000000000
      7301        66  SAPS      C31            -6.7931464134       38.8116372901       15.6665531687  MEMB      66              0.0000000000
      7302        66  SAPS      O32            -7.5426738954       38.7951684466       14.7414084012  MEMB      66              0.0000000000
      7303        66  SAPS      C32            -5.2540017697       38.7475917133       15.5190893076  MEMB      66              0.0000000000
      7304        66  SAPS      H2X            -4.7095862864       38.2980132100       16.3768842744  MEMB      66              0.0000000000
      7305        66  SAPS      H2Y            -4.7582055582       39.7416604470       15.5373724617  MEMB      66              0.0000000000
      7306        66  SAPS      C23            -9.1345531267       35.6805131791       13.2778507448  MEMB      66              0.0000000000
      7307        66  SAPS      H3R            -8.3513154369       34.9547015632       13.5845382157  MEMB      66              0.0000000000
      7308        66  SAPS      H3S            -8.7715231724       36.7292798284       13.2266773412  MEMB      66              0.0000000000
      7309        66  SAPS      C24            -9.6346545790       35.2166095772       11.9177718999  MEMB      66              0.0000000000
      7310        66  SAPS      H4R            -8.7578457420       35.1711403938       11.2369931926  MEMB      66              0.0000000000
      7311        66  SAPS      H4S           -10.4059064834       35.9436392429       11.5847265506  MEMB      66              0.0000000000
      7312        66  SAPS      C25           -10.3048221715       33.8310085523       12.0432202587  MEMB      66              0.0000000000
      7313        66  SAPS      H5R           -11.2816633697       33.9435146960       12.5362959918  MEMB      66              0.0000000000
      7314        66  SAPS      C26            -9.7914317536       32.6088721740       11.7227970209  MEMB      66              0.0000000000
      7315        66  SAPS      H6R           -10.4002097860       31.7097721819       11.8988887439  MEMB      66              0.0000000000
      7316        66  SAPS      C27            -8.4133004365       32.3384805286       11.1256608652  MEMB      66              0.0000000000
      7317        66  SAPS      H7R            -7.8278425825       32.3753307731       12.0691659311  MEMB      66              0.0000000000
      7318        66  SAPS      H7S            -7.9595585422       33.1211150526       10.4807398835  MEMB      66              0.0000000000
      7319        66  SAPS      C28            -8.1694195920       30.9867718482       10.5231242056  MEMB      66              0.0000000000
      7320        66  SAPS      H8R            -8.2834032705       30.1030283288       11.1681088330  MEMB      66              0.0000000000
      7321        66  SAPS      C29            -8.0063573722       30.7188025204        9.2539098227  MEMB      66              0.0000000000
      7322        66  SAPS      H9R            -7.8338075863       29.6994336711        8.8782581802  MEMB      66              0.0000000000
      7323        66  SAPS      C210           -8.1125193021       31.7396440459        8.1328452460  MEMB      66              0.0000000000
      7324        66  SAPS      H10R           -7.5948904160       32.7120960972        8.2767830410  MEMB      66              0.0000000000
      7325        66  SAPS      H10S           -9.1859472227       32.0242765212        8.1003219985  MEMB      66              0.0000000000
      7326        66  SAPS      C211           -7.6222467721       31.2166383873        6.8359767659  MEMB      66              0.0000000000
      7327        66  SAPS      H11R           -8.3357150268       30.7036265091        6.1743260222  MEMB      66              0.0000000000
      7328        66  SAPS      C212           -6.3180016983       31.2035714425        6.4718368473  MEMB      66              0.0000000000
      7329        66  SAPS      H12R           -6.0287980443       30.9200377591        5.4491099522  MEMB      66              0.0000000000
      7330        66  SAPS      C213           -5.2391766029       31.8258990565        7.3743645058  MEMB      66              0.0000000000
      7331        66  SAPS      H13R           -5.4667901739       31.4673853241        8.4009995629  MEMB      66              0.0000000000
      7332        66  SAPS      H13S           -5.2402390289       32.9310045868        7.4886525746  MEMB      66              0.0000000000
      7333        66  SAPS      C214           -3.8307525034       31.4083409546        7.1913016350  MEMB      66              0.0000000000
      7334        66  SAPS      H14R           -3.4269381310       30.7218466041        7.9500240210  MEMB      66              0.0000000000
      7335        66  SAPS      C215           -3.0727861872       31.7879684766        6.0972466250  MEMB      66              0.0000000000
      7336        66  SAPS      H15R           -2.0105998512       31.5092895549        6.0332251155  MEMB      66              0.0000000000
      7337        66  SAPS      C216           -3.4912359395       32.5780391085        4.8909230359  MEMB      66              0.0000000000
      7338        66  SAPS      H16R           -2.9935811630       33.5670438908        4.9832809832  MEMB      66              0.0000000000
      7339        66  SAPS      H16S           -4.5775929451       32.7820014774        5.0029422589  MEMB      66              0.0000000000
      7340        66  SAPS      C217           -3.0221615196       31.9834939803        3.5113506059  MEMB      66              0.0000000000
      7341        66  SAPS      H17R           -3.3491654269       30.9250906132        3.4266629615  MEMB      66              0.0000000000
      7342        66  SAPS      H17S           -1.9136291980       32.0538078762        3.4882715370  MEMB      66              0.0000000000
      7343        66  SAPS      C218           -3.5953187973       32.7945021002        2.2868653103  MEMB      66              0.0000000000
      7344        66  SAPS      H18R           -4.5960087455       33.1585587893        2.6037289894  MEMB      66              0.0000000000
      7345        66  SAPS      H18S           -3.6650814841       32.1587241047        1.3784373568  MEMB      66              0.0000000000
      7346        66  SAPS      C219           -2.7571671819       34.0146368100        1.8252627474  MEMB      66              0.0000000000
      7347        66  SAPS      H19R           -1.8299608879       33.6120367918        1.3642613843  MEMB      66              0.0000000000
      7348        66  SAPS      H19S           -2.6191386425       34.6526040346        2.7242988110  MEMB      66              0.0000000000
      7349        66  SAPS      C220           -3.4764992597       34.8578918730        0.8025012883  MEMB      66              0.0000000000
      7350        66  SAPS      H20R           -3.5451848927       35.9550217049        0.9634667843  MEMB      66              0.0000000000
      7351        66  SAPS      H20S           -4.4712163822       34.4283736176        0.5567915223  MEMB      66              0.0000000000
      7352        66  SAPS      H20T           -2.8888552772       34.9022346655       -0.1393206215  MEMB      66              0.0000000000
      7353        66  SAPS      C33            -4.7675729683       38.0566199854       14.2561876501  MEMB      66              0.0000000000
      7354        66  SAPS      H3X            -3.7310251691       38.3731299548       14.0118289748  MEMB      66              0.0000000000
      7355        66  SAPS      H3Y            -5.1778160647       38.6209516055       13.3915774732  MEMB      66              0.0000000000
      7356        66  SAPS      C34            -5.0228621020       36.5465803690       14.1198176935  MEMB      66              0.0000000000
      7357        66  SAPS      H4X            -6.0405477805       36.2858148830       14.4812568110  MEMB      66              0.0000000000
      7358        66  SAPS      H4Y            -4.3307005955       36.1050505516       14.8683397749  MEMB      66              0.0000000000
      7359        66  SAPS      C35            -4.8670440702       35.9832508865       12.7402790570  MEMB      66              0.0000000000
      7360        66  SAPS      H5X            -5.1422956872       34.9157643510       12.8782286517  MEMB      66              0.0000000000
      7361        66  SAPS      H5Y            -3.8358744772       35.9875878455       12.3267681094  MEMB      66              0.0000000000
      7362        66  SAPS      C36            -5.8205104031       36.6832489314       11.6981324820  MEMB      66              0.0000000000
      7363        66  SAPS      H6X            -5.3421269059       37.6510933042       11.4359346998  MEMB      66              0.0000000000
      7364        66  SAPS      H6Y            -6.7506331355       36.9196300105       12.2578793405  MEMB      66              0.0000000000
      7365        66  SAPS      C37            -6.0048757407       35.9151492659       10.3934341584  MEMB      66              0.0000000000
      7366        66  SAPS      H7X            -6.4791009844       34.9270917779       10.5755708224  MEMB      66              0.0000000000
      7367        66  SAPS      H7Y            -4.9673099536       35.6914517928       10.0652007454  MEMB      66              0.0000000000
      7368        66  SAPS      C38            -6.5664657356       36.7099095535        9.1502068612  MEMB      66              0.0000000000
      7369        66  SAPS      H8X            -5.8692921956       37.5411730348        8.9108933913  MEMB      66              0.0000000000
      7370        66  SAPS      H8Y            -7.5721943235       37.0816582663        9.4411255259  MEMB      66              0.0000000000
      7371        66  SAPS      C39            -6.6136919564       35.7031256351        7.9944554276  MEMB      66              0.0000000000
      7372        66  SAPS      H9X            -7.1831528476       34.8370332063        8.3943539502  MEMB      66              0.0000000000
      7373        66  SAPS      H9Y            -5.6150121290       35.2387940805        7.8483186000  MEMB      66              0.0000000000
      7374        66  SAPS      C310           -7.0718496331       36.2170111956        6.6245908116  MEMB      66              0.0000000000
      7375        66  SAPS      H10X           -6.3499437306       36.8895706936        6.1138686416  MEMB      66              0.0000000000
      7376        66  SAPS      H10Y           -7.9069042800       36.8681810128        6.9607197669  MEMB      66              0.0000000000
      7377        66  SAPS      C311           -7.6034621460       35.1411416350        5.6716424687  MEMB      66              0.0000000000
      7378        66  SAPS      H11X           -8.3514340966       34.4795097623        6.1585732612  MEMB      66              0.0000000000
      7379        66  SAPS      H11Y           -6.7268730198       34.5441540257        5.3407064161  MEMB      66              0.0000000000
      7380        66  SAPS      C312           -8.3980024704       35.7297777966        4.4497858103  MEMB      66              0.0000000000
      7381        66  SAPS      H12X           -7.6387226491       36.0258944933        3.6947159159  MEMB      66              0.0000000000
      7382        66  SAPS      H12Y           -9.0123991116       36.5919111862        4.7867784820  MEMB      66              0.0000000000
      7383        66  SAPS      C313           -9.2652622527       34.7667107416        3.6921399378  MEMB      66              0.0000000000
      7384        66  SAPS      H13X           -9.7175648198       35.2425914715        2.7958809803  MEMB      66              0.0000000000
      7385        66  SAPS      H13Y          -10.0426636025       34.2840138466        4.3221970920  MEMB      66              0.0000000000
      7386        66  SAPS      C314           -8.4338942335       33.6126873015        3.0244986914  MEMB      66              0.0000000000
      7387        66  SAPS      H14X           -8.1530869922       32.9764202003        3.8908887795  MEMB      66              0.0000000000
      7388        66  SAPS      H14Y           -7.5295319741       34.0732487098        2.5724655133  MEMB      66              0.0000000000
      7389        66  SAPS      C315           -9.0788107882       32.7769458684        1.9036501711  MEMB      66              0.0000000000
      7390        66  SAPS      H15X           -9.6669417067       33.3614316913        1.1641904923  MEMB      66              0.0000000000
      7391        66  SAPS      H15Y           -9.7928890649       32.0208394834        2.2944395057  MEMB      66              0.0000000000
      7392        66  SAPS      C316           -8.0510725494       31.9221384998        1.1541686253  MEMB      66              0.0000000000
      7393        66  SAPS      H16X           -7.2902992519       32.5686659019        0.6667810667  MEMB      66              0.0000000000
      7394        66  SAPS      H16Y           -8.5086690430       31.4597230791        0.2535603548  MEMB      66              0.0000000000
      7395        66  SAPS      C317           -7.2017999504       30.9652652646        1.9819214432  MEMB      66              0.0000000000
      7396        66  SAPS      H17X           -7.9301139437       30.2635942985        2.4418532747  MEMB      66              0.0000000000
      7397        66  SAPS      H17Y           -6.7201794652       31.6074088804        2.7500464679  MEMB      66              0.0000000000
      7398        66  SAPS      C318           -6.1679272141       30.3224420449        1.0703812974  MEMB      66              0.0000000000
      7399        66  SAPS      H18X           -5.3369219257       31.0307154838        0.8651992394  MEMB      66              0.0000000000
      7400        66  SAPS      H18Y           -6.5811888525       29.9730006189        0.1001106282  MEMB      66              0.0000000000
      7401        66  SAPS      H18Z           -5.6463771565       29.5191902360        1.6334918082  MEMB      66              0.0000000000
      7402        67  SAPE      N               7.2626774490       36.3549945374       18.7827114079  MEMB      67              0.0000000000
      7403        67  SAPE      HN1             7.0590172324       36.5649794237       19.7807238772  MEMB      67              0.0000000000
      7404        67  SAPE      HN2             7.7267217316       37.1867382319       18.3650212931  MEMB      67              0.0000000000
      7405        67  SAPE      HN3             6.3851189691       36.1326533034       18.2707976589  MEMB      67              0.0000000000
      7406        67  SAPE      C12             8.1938128942       35.2262672832       18.5797087855  MEMB      67              0.0000000000
      7407        67  SAPE      H12A            9.0325411105       35.3909206491       19.2894588539  MEMB      67              0.0000000000
      7408        67  SAPE      H12B            8.7069467537       35.1917312870       17.5949132552  MEMB      67              0.0000000000
      7409        67  SAPE      C11             7.4948110882       33.8113252240       18.6763890818  MEMB      67              0.0000000000
      7410        67  SAPE      H11A            8.1324149551       33.0868380961       18.1260249715  MEMB      67              0.0000000000
      7411        67  SAPE      H11B            6.4947644346       33.8774124891       18.1969516907  MEMB      67              0.0000000000
      7412        67  SAPE      P               8.2164044691       32.5522128042       20.8968176381  MEMB      67              0.0000000000
      7413        67  SAPE      O13             8.8067530035       33.5391336255       21.8033247846  MEMB      67              0.0000000000
      7414        67  SAPE      O14             7.6545340620       31.3233686368       21.4424911648  MEMB      67              0.0000000000
      7415        67  SAPE      O12             7.1733103371       33.3365327262       20.0162588490  MEMB      67              0.0000000000
      7416        67  SAPE      O11             9.3127069355       32.0501755659       19.8022982609  MEMB      67              0.0000000000
      7417        67  SAPE      C1             10.2677937169       31.0734168418       20.1664740990  MEMB      67              0.0000000000
      7418        67  SAPE      HA             11.2106583337       31.4893926132       20.5815542357  MEMB      67              0.0000000000
      7419        67  SAPE      HB              9.8749393319       30.3388984756       20.9016402776  MEMB      67              0.0000000000
      7420        67  SAPE      C2             10.5953006843       30.2756968300       18.8290317205  MEMB      67              0.0000000000
      7421        67  SAPE      HS             11.6035874979       29.8592554460       19.0394009855  MEMB      67              0.0000000000
      7422        67  SAPE      O21            10.6408048580       31.1286108150       17.7243952471  MEMB      67              0.0000000000
      7423        67  SAPE      C21            11.7680646693       31.8078510387       17.5433636780  MEMB      67              0.0000000000
      7424        67  SAPE      O22            12.7069114071       31.9178275561       18.2674548506  MEMB      67              0.0000000000
      7425        67  SAPE      C22            11.6438874795       32.5208362307       16.1572887761  MEMB      67              0.0000000000
      7426        67  SAPE      H2R            10.5847235289       32.6941953422       15.8701659307  MEMB      67              0.0000000000
      7427        67  SAPE      H2S            12.1964010912       33.4691998085       16.3294988233  MEMB      67              0.0000000000
      7428        67  SAPE      C3              9.5954870584       29.2103944913       18.6155761757  MEMB      67              0.0000000000
      7429        67  SAPE      HX              9.5948556128       28.5869536074       19.5351641282  MEMB      67              0.0000000000
      7430        67  SAPE      HY             10.0078538855       28.7076649771       17.7147222513  MEMB      67              0.0000000000
      7431        67  SAPE      O31             8.3301320371       29.8209412567       18.4239556572  MEMB      67              0.0000000000
      7432        67  SAPE      C31             7.2777183332       29.1232375600       18.8785822239  MEMB      67              0.0000000000
      7433        67  SAPE      O32             7.4511369214       28.0219355438       19.4149490971  MEMB      67              0.0000000000
      7434        67  SAPE      C32             5.9065542293       29.7875746092       18.6360205142  MEMB      67              0.0000000000
      7435        67  SAPE      H2X             5.8604493180       30.7505208044       19.1882251406  MEMB      67              0.0000000000
      7436        67  SAPE      H2Y             5.1154574129       29.1452950528       19.0786988019  MEMB      67              0.0000000000
      7437        67  SAPE      C23            12.2969765445       31.6994818262       15.0498867706  MEMB      67              0.0000000000
      7438        67  SAPE      H3R            13.3175198039       31.4812258080       15.4309072974  MEMB      67              0.0000000000
      7439        67  SAPE      H3S            12.3483846441       32.2320421171       14.0762044325  MEMB      67              0.0000000000
      7440        67  SAPE      C24            11.6551352960       30.3457381673       14.7488335261  MEMB      67              0.0000000000
      7441        67  SAPE      H4R            11.9349649675       29.6446109053       15.5639636581  MEMB      67              0.0000000000
      7442        67  SAPE      H4S            12.1405471216       29.9431813878       13.8341510655  MEMB      67              0.0000000000
      7443        67  SAPE      C25            10.1806040754       30.2996784846       14.3829656353  MEMB      67              0.0000000000
      7444        67  SAPE      H5R             9.4463992588       30.0461055906       15.1618389371  MEMB      67              0.0000000000
      7445        67  SAPE      C26             9.6577152811       30.6206152531       13.2182823067  MEMB      67              0.0000000000
      7446        67  SAPE      H6R             8.5643907836       30.6003206461       13.0989945374  MEMB      67              0.0000000000
      7447        67  SAPE      C27            10.4599136630       31.0823213283       11.9880745166  MEMB      67              0.0000000000
      7448        67  SAPE      H7R             9.8981594909       30.7800337483       11.0784726241  MEMB      67              0.0000000000
      7449        67  SAPE      H7S            11.4646728245       30.6170506051       12.0791956985  MEMB      67              0.0000000000
      7450        67  SAPE      C28            10.5598987610       32.6258584202       12.0222138122  MEMB      67              0.0000000000
      7451        67  SAPE      H8R            10.4686396348       33.0612049740       13.0282681720  MEMB      67              0.0000000000
      7452        67  SAPE      C29            10.5921717997       33.5375991278       10.9601863542  MEMB      67              0.0000000000
      7453        67  SAPE      H9R            10.6931608472       34.6023895705       11.2171343164  MEMB      67              0.0000000000
      7454        67  SAPE      C210           10.5951290334       33.1919823524        9.4510721468  MEMB      67              0.0000000000
      7455        67  SAPE      H10R            9.6190946378       32.6845471213        9.2955494494  MEMB      67              0.0000000000
      7456        67  SAPE      H10S           11.3053982556       32.3562598726        9.2738544496  MEMB      67              0.0000000000
      7457        67  SAPE      C211           10.7130441666       34.4360910569        8.5097351442  MEMB      67              0.0000000000
      7458        67  SAPE      H11R           10.2061348332       35.3149275130        8.9348112886  MEMB      67              0.0000000000
      7459        67  SAPE      C212           11.3493655702       34.6573451213        7.3509305748  MEMB      67              0.0000000000
      7460        67  SAPE      H12R           11.1263272132       35.6053296204        6.8394828751  MEMB      67              0.0000000000
      7461        67  SAPE      C213           12.2019956520       33.6924298478        6.5033243693  MEMB      67              0.0000000000
      7462        67  SAPE      H13R           11.5766691043       33.2037618849        5.7258341826  MEMB      67              0.0000000000
      7463        67  SAPE      H13S           12.5991159736       32.8292945820        7.0791837255  MEMB      67              0.0000000000
      7464        67  SAPE      C214           13.3987947726       34.3858306828        5.8132993514  MEMB      67              0.0000000000
      7465        67  SAPE      H14R           14.3660422642       34.3599426560        6.3365218775  MEMB      67              0.0000000000
      7466        67  SAPE      C215           13.2226888532       35.0809554095        4.7332573892  MEMB      67              0.0000000000
      7467        67  SAPE      H15R           14.1526283646       35.4429568794        4.2704737251  MEMB      67              0.0000000000
      7468        67  SAPE      C216           11.9682172458       35.3568710580        4.0086030433  MEMB      67              0.0000000000
      7469        67  SAPE      H16R           11.7536221049       36.4443361067        3.9331776439  MEMB      67              0.0000000000
      7470        67  SAPE      H16S           11.1422185297       34.6988031850        4.3535589277  MEMB      67              0.0000000000
      7471        67  SAPE      C217           12.2542691414       34.8081759843        2.5647974149  MEMB      67              0.0000000000
      7472        67  SAPE      H17R           12.8723789074       35.4993933587        1.9528487504  MEMB      67              0.0000000000
      7473        67  SAPE      H17S           11.3012540438       34.6777804835        2.0088471746  MEMB      67              0.0000000000
      7474        67  SAPE      C218           12.6388028623       33.3535728917        2.5404146104  MEMB      67              0.0000000000
      7475        67  SAPE      H18R           12.0341903758       32.8370559279        3.3162851669  MEMB      67              0.0000000000
      7476        67  SAPE      H18S           13.7289913953       33.1403400546        2.5219290665  MEMB      67              0.0000000000
      7477        67  SAPE      C219           12.0118166593       32.6277059846        1.3190164480  MEMB      67              0.0000000000
      7478        67  SAPE      H19R           12.1109476342       33.2788119818        0.4242787285  MEMB      67              0.0000000000
      7479        67  SAPE      H19S           10.9413599611       32.3531482191        1.4333031855  MEMB      67              0.0000000000
      7480        67  SAPE      C220           12.5655240919       31.1823526032        1.1678721562  MEMB      67              0.0000000000
      7481        67  SAPE      H20R           13.6405439261       31.3107359282        0.9185296289  MEMB      67              0.0000000000
      7482        67  SAPE      H20S           12.0690626547       30.6121898032        0.3537712472  MEMB      67              0.0000000000
      7483        67  SAPE      H20T           12.4864321453       30.7599393370        2.1923886022  MEMB      67              0.0000000000
      7484        67  SAPE      C33             5.7939425562       30.0127576942       17.1207099623  MEMB      67              0.0000000000
      7485        67  SAPE      H3X             5.6826771789       29.0687511991       16.5455642671  MEMB      67              0.0000000000
      7486        67  SAPE      H3Y             6.7626400063       30.4876374966       16.8553125845  MEMB      67              0.0000000000
      7487        67  SAPE      C34             4.5935423502       30.9505107331       16.7640055448  MEMB      67              0.0000000000
      7488        67  SAPE      H4X             4.9448999141       31.9791050431       16.9939241973  MEMB      67              0.0000000000
      7489        67  SAPE      H4Y             3.6637491793       30.6813032882       17.3092881133  MEMB      67              0.0000000000
      7490        67  SAPE      C35             4.2010550234       30.9039027624       15.3089445158  MEMB      67              0.0000000000
      7491        67  SAPE      H5X             3.2103287449       31.4045101567       15.2623049395  MEMB      67              0.0000000000
      7492        67  SAPE      H5Y             4.1912617884       29.8184799798       15.0721262416  MEMB      67              0.0000000000
      7493        67  SAPE      C36             5.1305948216       31.7301659052       14.3873330611  MEMB      67              0.0000000000
      7494        67  SAPE      H6X             6.1838926859       31.3835424374       14.4561568437  MEMB      67              0.0000000000
      7495        67  SAPE      H6Y             4.9609381836       32.7296650572       14.8417989363  MEMB      67              0.0000000000
      7496        67  SAPE      C37             4.7903269415       31.6280510799       12.9221199282  MEMB      67              0.0000000000
      7497        67  SAPE      H7X             3.7718620611       32.0240259105       12.7214849743  MEMB      67              0.0000000000
      7498        67  SAPE      H7Y             4.7428144247       30.5552137882       12.6373681376  MEMB      67              0.0000000000
      7499        67  SAPE      C38             5.6546584462       32.5168618966       12.0466301727  MEMB      67              0.0000000000
      7500        67  SAPE      H8X             6.7121153057       32.1769127756       12.0233765978  MEMB      67              0.0000000000
      7501        67  SAPE      H8Y             5.6085614356       33.5671919875       12.4057998140  MEMB      67              0.0000000000
      7502        67  SAPE      C39             5.2084413952       32.5339904642       10.5952492651  MEMB      67              0.0000000000
      7503        67  SAPE      H9X             4.1756793475       32.9404883282       10.5454117198  MEMB      67              0.0000000000
      7504        67  SAPE      H9Y             5.0453992211       31.4627720608       10.3498328053  MEMB      67              0.0000000000
      7505        67  SAPE      C310            6.1665422857       33.1558312396        9.5775682689  MEMB      67              0.0000000000
      7506        67  SAPE      H10X            6.9816401650       32.4108844590        9.4551316787  MEMB      67              0.0000000000
      7507        67  SAPE      H10Y            6.6574744985       34.0500325873       10.0176936707  MEMB      67              0.0000000000
      7508        67  SAPE      C311            5.4156167773       33.2671096993        8.2770230861  MEMB      67              0.0000000000
      7509        67  SAPE      H11X            4.8430135110       34.2138682635        8.1765527332  MEMB      67              0.0000000000
      7510        67  SAPE      H11Y            4.7714088950       32.3667225821        8.1841787372  MEMB      67              0.0000000000
      7511        67  SAPE      C312            6.3161318168       33.1290586877        7.0001919659  MEMB      67              0.0000000000
      7512        67  SAPE      H12X            6.8965487098       32.1871623957        7.1015249183  MEMB      67              0.0000000000
      7513        67  SAPE      H12Y            7.0927510754       33.9182883287        7.0912947300  MEMB      67              0.0000000000
      7514        67  SAPE      C313            5.6447592671       33.1989607033        5.5737885927  MEMB      67              0.0000000000
      7515        67  SAPE      H13X            5.2181390046       34.2218881460        5.4967430318  MEMB      67              0.0000000000
      7516        67  SAPE      H13Y            4.7606207077       32.5358120853        5.4604123653  MEMB      67              0.0000000000
      7517        67  SAPE      C314            6.7263155747       32.9056260567        4.5619713927  MEMB      67              0.0000000000
      7518        67  SAPE      H14X            7.6783610033       33.4435414657        4.7583838000  MEMB      67              0.0000000000
      7519        67  SAPE      H14Y            6.4230881633       33.2213538055        3.5408491964  MEMB      67              0.0000000000
      7520        67  SAPE      C315            7.0567827059       31.4098860187        4.5043023564  MEMB      67              0.0000000000
      7521        67  SAPE      H15X            6.0893685710       30.9176164170        4.2674455218  MEMB      67              0.0000000000
      7522        67  SAPE      H15Y            7.3038219452       30.9590780616        5.4892205955  MEMB      67              0.0000000000
      7523        67  SAPE      C316            7.9192171777       30.9997984375        3.2810794533  MEMB      67              0.0000000000
      7524        67  SAPE      H16X            8.8749237941       31.5571247793        3.1794307334  MEMB      67              0.0000000000
      7525        67  SAPE      H16Y            7.2813290425       31.1323737802        2.3811662603  MEMB      67              0.0000000000
      7526        67  SAPE      C317            8.3320057529       29.5075155554        3.3642833639  MEMB      67              0.0000000000
      7527        67  SAPE      H17X            7.4387026060       28.8644814105        3.2131632576  MEMB      67              0.0000000000
      7528        67  SAPE      H17Y            8.6215101337       29.3778372347        4.4290318247  MEMB      67              0.0000000000
      7529        67  SAPE      C318            9.4394890864       29.0890288812        2.4068115393  MEMB      67              0.0000000000
      7530        67  SAPE      H18X           10.4715960338       29.0492831606        2.8160747974  MEMB      67              0.0000000000
      7531        67  SAPE      H18Y            9.5058767153       29.8378645085        1.5887900529  MEMB      67              0.0000000000
      7532        67  SAPE      H18Z            9.2508937863       28.0992439197        1.9387536722  MEMB      67              0.0000000000
      7533        68  POPC      N             -15.7947589137      -30.5478515650       18.8814631365  MEMB      68              0.0000000000
      7534        68  POPC      C12           -16.8738122450      -29.9795603807       17.9998387283  MEMB      68              0.0000000000
      7535        68  POPC      H12A          -17.7311530649      -30.6331470711       18.0645786101  MEMB      68              0.0000000000
      7536        68  POPC      H12B          -16.4522300217      -29.9176276550       17.0074513573  MEMB      68              0.0000000000
      7537        68  POPC      C13           -14.4675589468      -29.7759519358       18.7520919270  MEMB      68              0.0000000000
      7538        68  POPC      H13A          -14.5353578593      -28.7352348178       19.0326472850  MEMB      68              0.0000000000
      7539        68  POPC      H13B          -13.7464613212      -30.1089710547       19.4838819417  MEMB      68              0.0000000000
      7540        68  POPC      H13C          -14.0631634296      -29.7274301770       17.7518369365  MEMB      68              0.0000000000
      7541        68  POPC      C14           -16.1926334953      -30.5229636325       20.3405882322  MEMB      68              0.0000000000
      7542        68  POPC      H14A          -16.3376265663      -29.5480476454       20.7820811251  MEMB      68              0.0000000000
      7543        68  POPC      H14B          -17.1339162149      -31.0381524908       20.4629291965  MEMB      68              0.0000000000
      7544        68  POPC      H14C          -15.4898243298      -31.1037228495       20.9195338553  MEMB      68              0.0000000000
      7545        68  POPC      C15           -15.4604886663      -31.9557974537       18.4022295435  MEMB      68              0.0000000000
      7546        68  POPC      H15A          -14.9938902612      -31.7790408339       17.4443971309  MEMB      68              0.0000000000
      7547        68  POPC      H15B          -16.3863171674      -32.5054439365       18.3177880308  MEMB      68              0.0000000000
      7548        68  POPC      H15C          -14.8216079326      -32.4595214588       19.1125064286  MEMB      68              0.0000000000
      7549        68  POPC      C11           -17.3308854139      -28.6119369809       18.3637772252  MEMB      68              0.0000000000
      7550        68  POPC      H11A          -17.7945426574      -28.0695850128       17.5121920389  MEMB      68              0.0000000000
      7551        68  POPC      H11B          -16.4946321902      -27.9117376827       18.5752541747  MEMB      68              0.0000000000
      7552        68  POPC      P             -19.8340530135      -28.8028081313       19.2934529726  MEMB      68              0.0000000000
      7553        68  POPC      O13           -20.6107383580      -27.9279224392       20.1732629581  MEMB      68              0.0000000000
      7554        68  POPC      O14           -20.0068128693      -30.2414230657       19.5287719991  MEMB      68              0.0000000000
      7555        68  POPC      O12           -18.2898455549      -28.4874320429       19.4328147901  MEMB      68              0.0000000000
      7556        68  POPC      O11           -20.1830106240      -28.4958768699       17.8317084959  MEMB      68              0.0000000000
      7557        68  POPC      C1            -21.4855788813      -28.7139451582       17.2670404889  MEMB      68              0.0000000000
      7558        68  POPC      HA            -22.1683202673      -27.8753158222       17.5217681424  MEMB      68              0.0000000000
      7559        68  POPC      HB            -21.8796582390      -29.6701469127       17.6728738461  MEMB      68              0.0000000000
      7560        68  POPC      C2            -21.4726672032      -29.0287278602       15.7446339041  MEMB      68              0.0000000000
      7561        68  POPC      HS            -22.4454683790      -29.5274836507       15.5465885380  MEMB      68              0.0000000000
      7562        68  POPC      O21           -20.4168884336      -29.9269564801       15.4076502205  MEMB      68              0.0000000000
      7563        68  POPC      C21           -20.3080911584      -31.1454998718       15.9335010229  MEMB      68              0.0000000000
      7564        68  POPC      O22           -21.1434543170      -31.6961392973       16.5656388317  MEMB      68              0.0000000000
      7565        68  POPC      C22           -18.9270687577      -31.8263043027       15.7088543981  MEMB      68              0.0000000000
      7566        68  POPC      H2R           -18.9829275667      -32.6497599219       16.4525756912  MEMB      68              0.0000000000
      7567        68  POPC      H2S           -18.0348322003      -31.2011747280       15.9266802101  MEMB      68              0.0000000000
      7568        68  POPC      C3            -21.2511871053      -27.7920536594       14.8910294771  MEMB      68              0.0000000000
      7569        68  POPC      HX            -21.9393331118      -26.9765121397       15.2003325187  MEMB      68              0.0000000000
      7570        68  POPC      HY            -21.4499906566      -28.1028073168       13.8430649434  MEMB      68              0.0000000000
      7571        68  POPC      O31           -19.9197433782      -27.1566846320       15.1158188057  MEMB      68              0.0000000000
      7572        68  POPC      C31           -19.0373446650      -27.5852401922       14.1750728852  MEMB      68              0.0000000000
      7573        68  POPC      O32           -19.1847794921      -28.4541118802       13.2853098441  MEMB      68              0.0000000000
      7574        68  POPC      C32           -17.7351702596      -26.7502407729       14.2565048158  MEMB      68              0.0000000000
      7575        68  POPC      H2X           -17.6080086437      -26.4460766749       15.3174643091  MEMB      68              0.0000000000
      7576        68  POPC      H2Y           -17.8822058166      -25.9630890329       13.4863789907  MEMB      68              0.0000000000
      7577        68  POPC      C23           -18.8439286394      -32.4266571580       14.3357385136  MEMB      68              0.0000000000
      7578        68  POPC      H3R           -19.1458900491      -31.6099453830       13.6457221204  MEMB      68              0.0000000000
      7579        68  POPC      H3S           -19.5891771291      -33.2414001389       14.2127769345  MEMB      68              0.0000000000
      7580        68  POPC      C24           -17.4189367926      -32.9141763591       13.8677807195  MEMB      68              0.0000000000
      7581        68  POPC      H4R           -17.1797854733      -33.7347681321       14.5775390660  MEMB      68              0.0000000000
      7582        68  POPC      H4S           -16.6575165811      -32.1060070951       13.8300614604  MEMB      68              0.0000000000
      7583        68  POPC      C25           -17.4125504738      -33.5100878523       12.4589172042  MEMB      68              0.0000000000
      7584        68  POPC      H5R           -17.9534805483      -34.4804911072       12.4646813244  MEMB      68              0.0000000000
      7585        68  POPC      H5S           -16.3712608270      -33.7710877134       12.1727078293  MEMB      68              0.0000000000
      7586        68  POPC      C26           -17.7689193615      -32.5842604395       11.3073989844  MEMB      68              0.0000000000
      7587        68  POPC      H6R           -17.1703869058      -31.6486883481       11.2793881228  MEMB      68              0.0000000000
      7588        68  POPC      H6S           -18.8301618569      -32.2864198449       11.4465979972  MEMB      68              0.0000000000
      7589        68  POPC      C27           -17.4748132997      -33.1464624429        9.9925981118  MEMB      68              0.0000000000
      7590        68  POPC      H7R           -17.9574157617      -34.1471468991        9.9994249422  MEMB      68              0.0000000000
      7591        68  POPC      H7S           -16.3854342802      -33.3512221099        9.9174442626  MEMB      68              0.0000000000
      7592        68  POPC      C28           -17.9972500726      -32.2901296173        8.8062289192  MEMB      68              0.0000000000
      7593        68  POPC      H8R           -17.5611609490      -32.7436005367        7.8905270233  MEMB      68              0.0000000000
      7594        68  POPC      H8S           -17.6971900537      -31.2363520380        8.9901803116  MEMB      68              0.0000000000
      7595        68  POPC      C29           -19.4988828337      -32.2988434175        8.7261313912  MEMB      68              0.0000000000
      7596        68  POPC      H91           -20.0020284010      -33.0706643688        9.3270783279  MEMB      68              0.0000000000
      7597        68  POPC      C210          -20.2746576621      -31.3830768807        8.1789060389  MEMB      68              0.0000000000
      7598        68  POPC      H101          -21.3573369104      -31.5230831946        8.3138269090  MEMB      68              0.0000000000
      7599        68  POPC      C211          -19.8424801905      -30.1234809235        7.4772210159  MEMB      68              0.0000000000
      7600        68  POPC      H11R          -20.4808209319      -29.8469246618        6.6109882137  MEMB      68              0.0000000000
      7601        68  POPC      H11S          -18.8020501832      -30.2904337943        7.1251513346  MEMB      68              0.0000000000
      7602        68  POPC      C212          -19.6740264736      -28.9308916882        8.3793179845  MEMB      68              0.0000000000
      7603        68  POPC      H12R          -18.8778634955      -29.0518942296        9.1446962527  MEMB      68              0.0000000000
      7604        68  POPC      H12S          -20.6631602738      -28.7083851390        8.8336590739  MEMB      68              0.0000000000
      7605        68  POPC      C213          -19.4692549250      -27.5359920160        7.6353664223  MEMB      68              0.0000000000
      7606        68  POPC      H13R          -18.3903245724      -27.2737513074        7.5971557413  MEMB      68              0.0000000000
      7607        68  POPC      H13S          -19.9908266225      -26.7204831303        8.1805543701  MEMB      68              0.0000000000
      7608        68  POPC      C214          -20.1135720162      -27.5499996186        6.2119833927  MEMB      68              0.0000000000
      7609        68  POPC      H14R          -21.1321773455      -27.9786750597        6.3260077914  MEMB      68              0.0000000000
      7610        68  POPC      H14S          -19.4865630379      -28.2459100766        5.6145813877  MEMB      68              0.0000000000
      7611        68  POPC      C215          -20.1934902991      -26.1629541897        5.5898310851  MEMB      68              0.0000000000
      7612        68  POPC      H15R          -19.2833353048      -25.5610997481        5.7989013294  MEMB      68              0.0000000000
      7613        68  POPC      H15S          -21.0612347869      -25.6704381866        6.0784700173  MEMB      68              0.0000000000
      7614        68  POPC      C216          -20.5319555929      -26.1118851926        4.0927482732  MEMB      68              0.0000000000
      7615        68  POPC      H16R          -21.0030361580      -25.1305658584        3.8704497280  MEMB      68              0.0000000000
      7616        68  POPC      H16S          -21.1858778148      -26.9684948369        3.8226993721  MEMB      68              0.0000000000
      7617        68  POPC      C217          -19.2991546375      -26.1691629626        3.1865518479  MEMB      68              0.0000000000
      7618        68  POPC      H17R          -18.5890596335      -26.9729681831        3.4763500562  MEMB      68              0.0000000000
      7619        68  POPC      H17S          -18.6394542852      -25.2800014404        3.2787911023  MEMB      68              0.0000000000
      7620        68  POPC      C218          -19.5827634183      -26.4054173344        1.6140838977  MEMB      68              0.0000000000
      7621        68  POPC      H18R          -19.6777365389      -27.5035093412        1.4744610785  MEMB      68              0.0000000000
      7622        68  POPC      H18S          -18.7771138763      -26.0326489565        0.9460319563  MEMB      68              0.0000000000
      7623        68  POPC      H18T          -20.5397553573      -25.8870266936        1.3910175460  MEMB      68              0.0000000000
      7624        68  POPC      C33           -16.4995157149      -27.6242293541       13.9024927277  MEMB      68              0.0000000000
      7625        68  POPC      H3X           -16.6709269968      -28.6961310242       14.1390644979  MEMB      68              0.0000000000
      7626        68  POPC      H3Y           -15.6835577265      -27.2579538505       14.5615650098  MEMB      68              0.0000000000
      7627        68  POPC      C34           -16.0793838978      -27.6426479086       12.4189273085  MEMB      68              0.0000000000
      7628        68  POPC      H4X           -15.3179330708      -26.8634957604       12.2011301348  MEMB      68              0.0000000000
      7629        68  POPC      H4Y           -17.0035983156      -27.3257831224       11.8900177900  MEMB      68              0.0000000000
      7630        68  POPC      C35           -15.7636722350      -29.0423168434       11.9748431483  MEMB      68              0.0000000000
      7631        68  POPC      H5X           -16.6976056701      -29.6249368220       11.8243676211  MEMB      68              0.0000000000
      7632        68  POPC      H5Y           -15.2804881404      -29.5394320135       12.8430200039  MEMB      68              0.0000000000
      7633        68  POPC      C36           -14.9355794116      -29.1644625935       10.6943575921  MEMB      68              0.0000000000
      7634        68  POPC      H6X           -14.8696279626      -30.2549402214       10.4922943017  MEMB      68              0.0000000000
      7635        68  POPC      H6Y           -13.9390275818      -28.7612666676       10.9747829710  MEMB      68              0.0000000000
      7636        68  POPC      C37           -15.4636821292      -28.3030014682        9.4448927995  MEMB      68              0.0000000000
      7637        68  POPC      H7X           -14.9398385994      -27.3232604998        9.4408050111  MEMB      68              0.0000000000
      7638        68  POPC      H7Y           -16.5102721914      -27.9519185341        9.5702355065  MEMB      68              0.0000000000
      7639        68  POPC      C38           -15.0977427781      -28.8985515707        8.0953587429  MEMB      68              0.0000000000
      7640        68  POPC      H8X           -15.1330372493      -30.0042976038        8.1973452155  MEMB      68              0.0000000000
      7641        68  POPC      H8Y           -14.0333170785      -28.6348653694        7.9170643804  MEMB      68              0.0000000000
      7642        68  POPC      C39           -15.7405489352      -28.3598132798        6.8223406512  MEMB      68              0.0000000000
      7643        68  POPC      H9X           -15.4147981023      -27.3023570647        6.7223719813  MEMB      68              0.0000000000
      7644        68  POPC      H9Y           -16.8268915860      -28.4893026264        7.0157657491  MEMB      68              0.0000000000
      7645        68  POPC      C310          -15.4588494233      -29.2989734204        5.6015967047  MEMB      68              0.0000000000
      7646        68  POPC      H10X          -15.6616780863      -30.3050623442        6.0269983267  MEMB      68              0.0000000000
      7647        68  POPC      H10Y          -14.3870699322      -29.1686010024        5.3396557967  MEMB      68              0.0000000000
      7648        68  POPC      C311          -16.2495932380      -29.0298361437        4.3243943484  MEMB      68              0.0000000000
      7649        68  POPC      H11X          -16.0250362975      -27.9759638180        4.0537500949  MEMB      68              0.0000000000
      7650        68  POPC      H11Y          -17.2919800393      -29.1286014498        4.6958732521  MEMB      68              0.0000000000
      7651        68  POPC      C312          -16.0522053875      -29.8880739223        3.0954786504  MEMB      68              0.0000000000
      7652        68  POPC      H12X          -14.9578431819      -30.0780651681        3.0710763946  MEMB      68              0.0000000000
      7653        68  POPC      H12Y          -16.5654651890      -29.3663079706        2.2596277745  MEMB      68              0.0000000000
      7654        68  POPC      C313          -16.6823574309      -31.2477947485        3.3618287409  MEMB      68              0.0000000000
      7655        68  POPC      H13X          -17.0066722951      -31.2990433764        4.4232019591  MEMB      68              0.0000000000
      7656        68  POPC      H13Y          -15.8873086638      -32.0236753359        3.3769169072  MEMB      68              0.0000000000
      7657        68  POPC      C314          -17.6593349084      -31.6532146270        2.2755950926  MEMB      68              0.0000000000
      7658        68  POPC      H14X          -17.8841465772      -32.7222463567        2.4779599212  MEMB      68              0.0000000000
      7659        68  POPC      H14Y          -17.1101107368      -31.5475858239        1.3156376232  MEMB      68              0.0000000000
      7660        68  POPC      C315          -19.0040067094      -31.0422062166        2.1100650905  MEMB      68              0.0000000000
      7661        68  POPC      H15X          -19.6968125859      -31.7258226416        1.5743324228  MEMB      68              0.0000000000
      7662        68  POPC      H15Y          -18.9842725968      -30.0207695891        1.6734901438  MEMB      68              0.0000000000
      7663        68  POPC      C316          -19.6348421952      -30.6946676950        3.4978113235  MEMB      68              0.0000000000
      7664        68  POPC      H16X          -19.7796451579      -31.6438300476        4.0567782297  MEMB      68              0.0000000000
      7665        68  POPC      H16Y          -20.6218508772      -30.2764946092        3.2058075968  MEMB      68              0.0000000000
      7666        68  POPC      H16Z          -19.1351168968      -29.8552261911        4.0268983930  MEMB      68              0.0000000000
      7667        69  OSM       N              27.1219979528      -21.0406881464       22.4059485136  MEMB      69              0.0000000000
      7668        69  OSM       C15            26.5971054358      -19.5719116571       22.4540099010  MEMB      69              0.0000000000
      7669        69  OSM       H15A           26.0107620749      -19.3694672550       23.3381014091  MEMB      69              0.0000000000
      7670        69  OSM       H15B           25.9058161694      -19.3556725471       21.6529108320  MEMB      69              0.0000000000
      7671        69  OSM       H15C           27.4017937283      -18.8535782584       22.5076179805  MEMB      69              0.0000000000
      7672        69  OSM       C14            28.3527876176      -21.1030926399       23.3617249294  MEMB      69              0.0000000000
      7673        69  OSM       H14A           29.0599470810      -20.3242518076       23.1173223461  MEMB      69              0.0000000000
      7674        69  OSM       H14B           28.7459698668      -22.0965898070       23.2043360125  MEMB      69              0.0000000000
      7675        69  OSM       H14C           28.0569209823      -20.9803710769       24.3931327937  MEMB      69              0.0000000000
      7676        69  OSM       C13            26.0610228834      -22.0212864962       22.7587132520  MEMB      69              0.0000000000
      7677        69  OSM       H13A           25.0925678978      -21.7165245108       22.3904541112  MEMB      69              0.0000000000
      7678        69  OSM       H13B           25.9380225030      -21.9977333196       23.8314276351  MEMB      69              0.0000000000
      7679        69  OSM       H13C           26.3771283442      -23.0111488439       22.4643493288  MEMB      69              0.0000000000
      7680        69  OSM       C12            27.5561001162      -21.2400888314       20.9307074128  MEMB      69              0.0000000000
      7681        69  OSM       H12A           26.8527367114      -20.7051059488       20.3098425467  MEMB      69              0.0000000000
      7682        69  OSM       H12B           27.5397342477      -22.2993916588       20.7209225576  MEMB      69              0.0000000000
      7683        69  OSM       C11            28.8870063390      -20.5293987440       20.5289338892  MEMB      69              0.0000000000
      7684        69  OSM       H11A           29.1479733050      -21.0105490419       19.5621290722  MEMB      69              0.0000000000
      7685        69  OSM       H11B           29.7605172282      -20.7824733727       21.1670976575  MEMB      69              0.0000000000
      7686        69  OSM       P              30.1605172654      -18.5673989245       19.7587484819  MEMB      69              0.0000000000
      7687        69  OSM       O13            30.4718746081      -17.2531914818       20.3360765623  MEMB      69              0.0000000000
      7688        69  OSM       O14            31.1826874144      -19.6705788722       19.8938590817  MEMB      69              0.0000000000
      7689        69  OSM       O11            29.8556034513      -18.4486746812       18.1976510612  MEMB      69              0.0000000000
      7690        69  OSM       O12            28.7920990205      -19.0608289260       20.3736269126  MEMB      69              0.0000000000
      7691        69  OSM       C1S            30.4223440008      -19.3889116530       17.3320627933  MEMB      69              0.0000000000
      7692        69  OSM       H1S            29.9379278282      -20.3633286003       17.5560573009  MEMB      69              0.0000000000
      7693        69  OSM       H1T            31.5297831385      -19.3752485673       17.4198858989  MEMB      69              0.0000000000
      7694        69  OSM       NF             30.5397026045      -20.2075164826       15.0296101079  MEMB      69              0.0000000000
      7695        69  OSM       HNF            31.2006635516      -19.7658450832       14.4278908877  MEMB      69              0.0000000000
      7696        69  OSM       C2S            29.9976395470      -19.1825999483       15.8244138356  MEMB      69              0.0000000000
      7697        69  OSM       H2S            28.8916078466      -19.1867634683       15.7195444135  MEMB      69              0.0000000000
      7698        69  OSM       C3S            30.4409809847      -17.7393619324       15.3368466374  MEMB      69              0.0000000000
      7699        69  OSM       H3S            31.5318717881      -17.5573067209       15.4423660070  MEMB      69              0.0000000000
      7700        69  OSM       O3             29.9153637758      -16.7339843543       16.1652011088  MEMB      69              0.0000000000
      7701        69  OSM       HO3            29.3760904083      -17.2752062688       16.7464613759  MEMB      69              0.0000000000
      7702        69  OSM       C4S            30.0432141389      -17.5313415292       13.8464571190  MEMB      69              0.0000000000
      7703        69  OSM       H4S            28.9764124789      -17.3978646424       13.6138242559  MEMB      69              0.0000000000
      7704        69  OSM       C5S            30.8334497235      -17.5680287350       12.7794470992  MEMB      69              0.0000000000
      7705        69  OSM       H5S            31.8806624292      -17.8549903627       12.9555115436  MEMB      69              0.0000000000
      7706        69  OSM       C6S            30.2718064166      -17.3786676502       11.3385990825  MEMB      69              0.0000000000
      7707        69  OSM       H6S            30.9431602202      -16.7359282889       10.7299197729  MEMB      69              0.0000000000
      7708        69  OSM       H6T            29.3280448066      -16.7924638279       11.3386211807  MEMB      69              0.0000000000
      7709        69  OSM       C7S            30.0489859447      -18.6980488676       10.6640694875  MEMB      69              0.0000000000
      7710        69  OSM       H7S            29.5615766661      -19.4886567215       11.2737352600  MEMB      69              0.0000000000
      7711        69  OSM       H7T            31.0301103302      -19.1120493288       10.3473362060  MEMB      69              0.0000000000
      7712        69  OSM       C8S            29.1733330697      -18.6194375161        9.3676042134  MEMB      69              0.0000000000
      7713        69  OSM       H8S            29.7243068013      -17.8099999153        8.8426665966  MEMB      69              0.0000000000
      7714        69  OSM       H8T            28.1449975954      -18.2807434846        9.6168709034  MEMB      69              0.0000000000
      7715        69  OSM       C9S            29.0423903389      -19.8167290273        8.4757384092  MEMB      69              0.0000000000
      7716        69  OSM       H9S            28.5479046184      -20.7077470878        8.9183355129  MEMB      69              0.0000000000
      7717        69  OSM       H9T            30.0748565002      -20.0531838292        8.1404416637  MEMB      69              0.0000000000
      7718        69  OSM       C10S           28.1523390837      -19.5467946442        7.2488598904  MEMB      69              0.0000000000
      7719        69  OSM       H10S           28.6809706410      -18.7378711633        6.7006699773  MEMB      69              0.0000000000
      7720        69  OSM       H10T           27.0867967356      -19.3369333782        7.4831644064  MEMB      69              0.0000000000
      7721        69  OSM       C11S           27.9477212370      -20.8045830353        6.3572168025  MEMB      69              0.0000000000
      7722        69  OSM       H11S           27.7276270354      -21.6472902410        7.0469445629  MEMB      69              0.0000000000
      7723        69  OSM       H11T           28.8657049094      -21.0712422965        5.7910729124  MEMB      69              0.0000000000
      7724        69  OSM       C12S           26.7873213985      -20.6561134775        5.2937229765  MEMB      69              0.0000000000
      7725        69  OSM       H12S           26.9017172196      -19.6902699000        4.7567121343  MEMB      69              0.0000000000
      7726        69  OSM       H12T           25.9012954102      -20.6535517063        5.9640010577  MEMB      69              0.0000000000
      7727        69  OSM       C13S           26.6968295326      -21.8667363159        4.3338213791  MEMB      69              0.0000000000
      7728        69  OSM       H13S           26.2679297116      -22.7442508007        4.8632886739  MEMB      69              0.0000000000
      7729        69  OSM       H13T           27.6678681926      -22.2248289216        3.9298742781  MEMB      69              0.0000000000
      7730        69  OSM       C14S           25.8398768359      -21.6562030135        3.0765367182  MEMB      69              0.0000000000
      7731        69  OSM       H14S           24.7964477118      -21.3497805599        3.3038744633  MEMB      69              0.0000000000
      7732        69  OSM       H14T           25.8351731292      -22.6682644322        2.6182461707  MEMB      69              0.0000000000
      7733        69  OSM       C15S           26.4770314139      -20.5416197367        2.1217750694  MEMB      69              0.0000000000
      7734        69  OSM       H15S           27.5446537662      -20.8013372586        1.9573054602  MEMB      69              0.0000000000
      7735        69  OSM       H15T           26.4181176812      -19.5459504746        2.6111564073  MEMB      69              0.0000000000
      7736        69  OSM       C16S           25.7551594963      -20.5183856752        0.8119918774  MEMB      69              0.0000000000
      7737        69  OSM       H16S           25.3124647217      -19.5182051137        0.6171040947  MEMB      69              0.0000000000
      7738        69  OSM       H16T           24.8506295580      -21.1626792904        0.8441224187  MEMB      69              0.0000000000
      7739        69  OSM       C17S           26.5637914730      -20.7997141432       -0.4375659474  MEMB      69              0.0000000000
      7740        69  OSM       H17S           26.0736636137      -20.3267167844       -1.3152729169  MEMB      69              0.0000000000
      7741        69  OSM       H17T           26.7026003267      -21.8976969438       -0.5349671483  MEMB      69              0.0000000000
      7742        69  OSM       C18S           28.0359965305      -20.2338814136       -0.5281805729  MEMB      69              0.0000000000
      7743        69  OSM       H18S           28.5599798959      -20.4305312959       -1.4879151249  MEMB      69              0.0000000000
      7744        69  OSM       H18T           28.6801728135      -20.5362385443        0.3250123875  MEMB      69              0.0000000000
      7745        69  OSM       H18U           27.8946763658      -19.1320089003       -0.5131417403  MEMB      69              0.0000000000
      7746        69  OSM       C1F            30.2168458742      -21.4902703727       14.9002966291  MEMB      69              0.0000000000
      7747        69  OSM       OF             29.6366185426      -22.1310814870       15.7605210722  MEMB      69              0.0000000000
      7748        69  OSM       C2F            30.5386811792      -22.1340357257       13.4956301277  MEMB      69              0.0000000000
      7749        69  OSM       H2F            31.1967281715      -23.0084859460       13.6870250809  MEMB      69              0.0000000000
      7750        69  OSM       H2G            30.9948932252      -21.3008960171       12.9193749040  MEMB      69              0.0000000000
      7751        69  OSM       C3F            29.2022225095      -22.6560502434       12.8070383216  MEMB      69              0.0000000000
      7752        69  OSM       H3F            28.3434670525      -21.9511698396       12.8089429039  MEMB      69              0.0000000000
      7753        69  OSM       H3G            28.8755952868      -23.5165017186       13.4293395340  MEMB      69              0.0000000000
      7754        69  OSM       C4F            29.5016756746      -22.9228133019       11.2500776220  MEMB      69              0.0000000000
      7755        69  OSM       H4F            29.9433870127      -22.0075834623       10.8011163054  MEMB      69              0.0000000000
      7756        69  OSM       H4G            28.5076640743      -23.2086651592       10.8444293133  MEMB      69              0.0000000000
      7757        69  OSM       C5F            30.3544431305      -24.1575359466       11.0314958514  MEMB      69              0.0000000000
      7758        69  OSM       H5F            29.8106154495      -25.0846629902       11.3125789864  MEMB      69              0.0000000000
      7759        69  OSM       H5G            31.2130734756      -24.0544257145       11.7289508723  MEMB      69              0.0000000000
      7760        69  OSM       C6F            30.9240567335      -24.1992489136        9.5691425509  MEMB      69              0.0000000000
      7761        69  OSM       H6F            30.2298549651      -23.8158485816        8.7910621966  MEMB      69              0.0000000000
      7762        69  OSM       H6G            30.9939251458      -25.2845249094        9.3419537411  MEMB      69              0.0000000000
      7763        69  OSM       C7F            32.2913600266      -23.6029335008        9.2994736402  MEMB      69              0.0000000000
      7764        69  OSM       H7F            32.5766116561      -23.8307337293        8.2501591835  MEMB      69              0.0000000000
      7765        69  OSM       H7G            32.9833813323      -24.0668209218       10.0344807006  MEMB      69              0.0000000000
      7766        69  OSM       C8F            32.2994701143      -22.0568527741        9.6425781008  MEMB      69              0.0000000000
      7767        69  OSM       H8F            31.9045046193      -22.1015004733       10.6800410098  MEMB      69              0.0000000000
      7768        69  OSM       H8G            31.5781686275      -21.6207559921        8.9187929181  MEMB      69              0.0000000000
      7769        69  OSM       C9F            33.5559431603      -21.2938519678        9.4638138749  MEMB      69              0.0000000000
      7770        69  OSM       H9F            34.0759530129      -21.1956250152       10.4281491326  MEMB      69              0.0000000000
      7771        69  OSM       C10F           34.1152851305      -20.7449142938        8.3289383416  MEMB      69              0.0000000000
      7772        69  OSM       H10F           35.1614657798      -20.4233412726        8.4389233714  MEMB      69              0.0000000000
      7773        69  OSM       C11F           33.4320051098      -20.7741736842        7.0554337666  MEMB      69              0.0000000000
      7774        69  OSM       H11F           32.6316335269      -21.5436175120        7.0964503700  MEMB      69              0.0000000000
      7775        69  OSM       H11G           34.1259127083      -21.2030595695        6.3011987910  MEMB      69              0.0000000000
      7776        69  OSM       C12F           32.8033998376      -19.5368723919        6.3215405876  MEMB      69              0.0000000000
      7777        69  OSM       H12F           33.6053769575      -18.7963906727        6.1145615880  MEMB      69              0.0000000000
      7778        69  OSM       H12G           32.0920307503      -18.9855175096        6.9729105898  MEMB      69              0.0000000000
      7779        69  OSM       C13F           32.0808044977      -19.9825194034        5.0793679963  MEMB      69              0.0000000000
      7780        69  OSM       H13F           31.1507172133      -20.4247644093        5.4961156806  MEMB      69              0.0000000000
      7781        69  OSM       H13G           32.6004179314      -20.8615714188        4.6416586031  MEMB      69              0.0000000000
      7782        69  OSM       C14F           31.8729948898      -18.9506465627        4.0098853751  MEMB      69              0.0000000000
      7783        69  OSM       H14F           31.8259736310      -19.5004477763        3.0456090743  MEMB      69              0.0000000000
      7784        69  OSM       H14G           32.7089740152      -18.2299901323        3.8829436673  MEMB      69              0.0000000000
      7785        69  OSM       C15F           30.5307647136      -18.2288887876        4.2790495511  MEMB      69              0.0000000000
      7786        69  OSM       H15F           30.5640864279      -17.7046217425        5.2580056891  MEMB      69              0.0000000000
      7787        69  OSM       H15G           29.7856424521      -19.0519926220        4.3192231576  MEMB      69              0.0000000000
      7788        69  OSM       C16F           30.0399490648      -17.2854166664        3.1086583241  MEMB      69              0.0000000000
      7789        69  OSM       H16F           30.8841985580      -16.5677949174        3.1897923603  MEMB      69              0.0000000000
      7790        69  OSM       H16G           29.0759478060      -16.8926031731        3.4968844761  MEMB      69              0.0000000000
      7791        69  OSM       C17F           29.8657836534      -17.8475026787        1.7418489323  MEMB      69              0.0000000000
      7792        69  OSM       H17F           29.1680011469      -18.7039181466        1.8600575583  MEMB      69              0.0000000000
      7793        69  OSM       H17G           30.8322920575      -18.3166996222        1.4589415946  MEMB      69              0.0000000000
      7794        69  OSM       C18F           29.3818302706      -16.8337796291        0.7042606379  MEMB      69              0.0000000000
      7795        69  OSM       H18F           30.1000305956      -16.0468147755        0.3893053651  MEMB      69              0.0000000000
      7796        69  OSM       H18G           28.4263762745      -16.3385613096        0.9802791848  MEMB      69              0.0000000000
      7797        69  OSM       H18H           29.0970596785      -17.4366520041       -0.1844302980  MEMB      69              0.0000000000
      7798        70  OSM       N             -24.7484289728       22.5107669906       21.2350539238  MEMB      70              0.0000000000
      7799        70  OSM       C15           -23.5912406231       22.9194482780       20.3756452627  MEMB      70              0.0000000000
      7800        70  OSM       H15A          -23.0269945574       23.7652898062       20.7397590220  MEMB      70              0.0000000000
      7801        70  OSM       H15B          -23.9166131790       23.1691816940       19.3765627393  MEMB      70              0.0000000000
      7802        70  OSM       H15C          -22.8904390404       22.0985441263       20.4129741007  MEMB      70              0.0000000000
      7803        70  OSM       C14           -24.1648934662       21.9520977684       22.4784842700  MEMB      70              0.0000000000
      7804        70  OSM       H14A          -24.9073986718       21.6959820607       23.2197610177  MEMB      70              0.0000000000
      7805        70  OSM       H14B          -23.4257698506       22.6514320053       22.8404618634  MEMB      70              0.0000000000
      7806        70  OSM       H14C          -23.6324764678       21.0562902641       22.1948274241  MEMB      70              0.0000000000
      7807        70  OSM       C13           -25.5720447250       23.7203125130       21.5392467642  MEMB      70              0.0000000000
      7808        70  OSM       H13A          -26.3608595170       23.4741517183       22.2346430955  MEMB      70              0.0000000000
      7809        70  OSM       H13B          -26.1190698499       23.9806117486       20.6451507444  MEMB      70              0.0000000000
      7810        70  OSM       H13C          -25.0393123835       24.5892453591       21.8963907601  MEMB      70              0.0000000000
      7811        70  OSM       C12           -25.7168020410       21.4562843188       20.6467588082  MEMB      70              0.0000000000
      7812        70  OSM       H12A          -25.0999214051       20.6352001145       20.3125747680  MEMB      70              0.0000000000
      7813        70  OSM       H12B          -26.0590755209       21.9485671907       19.7484791387  MEMB      70              0.0000000000
      7814        70  OSM       C11           -26.9508500677       20.9857186576       21.5459917070  MEMB      70              0.0000000000
      7815        70  OSM       H11A          -26.5497145979       20.6054327918       22.5097313354  MEMB      70              0.0000000000
      7816        70  OSM       H11B          -27.3518932196       20.0131095168       21.1888966511  MEMB      70              0.0000000000
      7817        70  OSM       P             -29.0846395333       22.1750173365       20.6223829876  MEMB      70              0.0000000000
      7818        70  OSM       O13           -30.3858037791       22.3929796316       21.2986171311  MEMB      70              0.0000000000
      7819        70  OSM       O14           -28.6061760463       23.2670408354       19.7490261528  MEMB      70              0.0000000000
      7820        70  OSM       O11           -29.1878400719       20.8323186575       19.7590920706  MEMB      70              0.0000000000
      7821        70  OSM       O12           -28.0450606313       21.8926780214       21.7497009218  MEMB      70              0.0000000000
      7822        70  OSM       C1S           -30.1501957212       20.6126846093       18.7726764962  MEMB      70              0.0000000000
      7823        70  OSM       H1S           -31.1018241065       21.1399405583       18.9978997428  MEMB      70              0.0000000000
      7824        70  OSM       H1T           -30.4320935570       19.5437696152       18.6618826567  MEMB      70              0.0000000000
      7825        70  OSM       NF            -30.3772342799       20.9195971647       16.2883975443  MEMB      70              0.0000000000
      7826        70  OSM       HNF           -30.3382795244       20.1537175252       15.6512788302  MEMB      70              0.0000000000
      7827        70  OSM       C2S           -29.4651237377       20.8438536569       17.3972052153  MEMB      70              0.0000000000
      7828        70  OSM       H2S           -28.9718640975       21.8231656300       17.5759899242  MEMB      70              0.0000000000
      7829        70  OSM       C3S           -28.4324904046       19.7887068796       17.0761455891  MEMB      70              0.0000000000
      7830        70  OSM       H3S           -28.9065918314       18.8249219492       16.7921256064  MEMB      70              0.0000000000
      7831        70  OSM       O3            -27.6578166925       19.3312056254       18.1815775666  MEMB      70              0.0000000000
      7832        70  OSM       HO3           -27.9051598072       19.9394514295       18.8819049549  MEMB      70              0.0000000000
      7833        70  OSM       C4S           -27.5641512106       20.2998301834       15.9382858601  MEMB      70              0.0000000000
      7834        70  OSM       H4S           -27.7285236744       19.7452628059       15.0026383324  MEMB      70              0.0000000000
      7835        70  OSM       C5S           -26.6682960995       21.3790360859       15.9537067229  MEMB      70              0.0000000000
      7836        70  OSM       H5S           -26.4764124594       21.8324747930       16.9373602435  MEMB      70              0.0000000000
      7837        70  OSM       C6S           -25.8689301562       21.9471572824       14.7833989922  MEMB      70              0.0000000000
      7838        70  OSM       H6S           -25.1012714626       21.1960525786       14.4990356362  MEMB      70              0.0000000000
      7839        70  OSM       H6T           -25.2971714207       22.8471063674       15.0956562725  MEMB      70              0.0000000000
      7840        70  OSM       C7S           -26.8542138902       22.1468993379       13.5593114314  MEMB      70              0.0000000000
      7841        70  OSM       H7S           -27.5812086362       22.9573272137       13.7806850971  MEMB      70              0.0000000000
      7842        70  OSM       H7T           -27.4762898247       21.2676864148       13.2866808883  MEMB      70              0.0000000000
      7843        70  OSM       C8S           -26.0458898183       22.5779472358       12.3003838495  MEMB      70              0.0000000000
      7844        70  OSM       H8S           -25.1184202312       23.1317527684       12.5600385310  MEMB      70              0.0000000000
      7845        70  OSM       H8T           -26.8216552897       23.1987420111       11.8032690761  MEMB      70              0.0000000000
      7846        70  OSM       C9S           -25.5913533885       21.3694123910       11.4537386367  MEMB      70              0.0000000000
      7847        70  OSM       H9S           -26.4502641148       20.7593639499       11.1009861458  MEMB      70              0.0000000000
      7848        70  OSM       H9T           -25.0770554885       20.6880060491       12.1647266782  MEMB      70              0.0000000000
      7849        70  OSM       C10S          -24.6648150238       21.5953539378       10.2295465211  MEMB      70              0.0000000000
      7850        70  OSM       H10S          -24.1434298020       20.6567900390        9.9439305559  MEMB      70              0.0000000000
      7851        70  OSM       H10T          -23.8451064067       22.2786955113       10.5384850529  MEMB      70              0.0000000000
      7852        70  OSM       C11S          -25.4820962113       22.0806013641        9.0434615810  MEMB      70              0.0000000000
      7853        70  OSM       H11S          -26.0633042485       22.9462116348        9.4271763474  MEMB      70              0.0000000000
      7854        70  OSM       H11T          -26.1614574876       21.2213023266        8.8580028502  MEMB      70              0.0000000000
      7855        70  OSM       C12S          -24.5729410857       22.6189768545        7.9229883898  MEMB      70              0.0000000000
      7856        70  OSM       H12S          -23.8013030431       21.8530123001        7.6945284787  MEMB      70              0.0000000000
      7857        70  OSM       H12T          -23.8780411659       23.4087812130        8.2802620309  MEMB      70              0.0000000000
      7858        70  OSM       C13S          -25.3243864704       22.9161901517        6.5904258686  MEMB      70              0.0000000000
      7859        70  OSM       H13S          -24.8599208182       23.5773335321        5.8278763658  MEMB      70              0.0000000000
      7860        70  OSM       H13T          -26.2063601751       23.5233034992        6.8868321590  MEMB      70              0.0000000000
      7861        70  OSM       C14S          -25.8951347648       21.7380120836        5.7433734284  MEMB      70              0.0000000000
      7862        70  OSM       H14S          -26.1513835090       20.8469724762        6.3555060597  MEMB      70              0.0000000000
      7863        70  OSM       H14T          -25.0517831706       21.3666079916        5.1227786901  MEMB      70              0.0000000000
      7864        70  OSM       C15S          -27.0357008541       21.9717621061        4.6745891436  MEMB      70              0.0000000000
      7865        70  OSM       H15S          -26.7561982404       22.7861160437        3.9724310964  MEMB      70              0.0000000000
      7866        70  OSM       H15T          -27.9008422983       22.3289482477        5.2731453808  MEMB      70              0.0000000000
      7867        70  OSM       C16S          -27.2695007760       20.7807313143        3.8124171365  MEMB      70              0.0000000000
      7868        70  OSM       H16S          -28.2800483180       20.8723687257        3.3599592950  MEMB      70              0.0000000000
      7869        70  OSM       H16T          -27.3201160639       19.8056965538        4.3425730026  MEMB      70              0.0000000000
      7870        70  OSM       C17S          -26.2746230834       20.8030502253        2.6445507416  MEMB      70              0.0000000000
      7871        70  OSM       H17S          -25.2484261150       20.5718289658        3.0020096487  MEMB      70              0.0000000000
      7872        70  OSM       H17T          -26.2592492000       21.7837650432        2.1227418412  MEMB      70              0.0000000000
      7873        70  OSM       C18S          -26.5186458133       19.8041926346        1.4865025865  MEMB      70              0.0000000000
      7874        70  OSM       H18S          -25.6181664947       19.8658962103        0.8386977598  MEMB      70              0.0000000000
      7875        70  OSM       H18T          -27.4967533721       20.0057082995        0.9996582201  MEMB      70              0.0000000000
      7876        70  OSM       H18U          -26.4563043638       18.8352497473        2.0264886066  MEMB      70              0.0000000000
      7877        70  OSM       C1F           -31.3610218333       21.8453105212       16.1967782433  MEMB      70              0.0000000000
      7878        70  OSM       OF            -31.3668240879       22.8043843615       17.0182404395  MEMB      70              0.0000000000
      7879        70  OSM       C2F           -32.4709888223       21.7703809713       15.1830622515  MEMB      70              0.0000000000
      7880        70  OSM       H2F           -32.9921570166       22.7510660038       15.1520583787  MEMB      70              0.0000000000
      7881        70  OSM       H2G           -33.1810918664       20.9895894731       15.5301065046  MEMB      70              0.0000000000
      7882        70  OSM       C3F           -31.8796909260       21.5381833663       13.7365663482  MEMB      70              0.0000000000
      7883        70  OSM       H3F           -31.5522662706       20.4856411693       13.5977534488  MEMB      70              0.0000000000
      7884        70  OSM       H3G           -30.9991199455       22.1863410193       13.5395705450  MEMB      70              0.0000000000
      7885        70  OSM       C4F           -32.9760513601       21.7905156110       12.6768132697  MEMB      70              0.0000000000
      7886        70  OSM       H4F           -33.5094663865       22.7194077657       12.9716840413  MEMB      70              0.0000000000
      7887        70  OSM       H4G           -33.7031195252       20.9554370403       12.7681195727  MEMB      70              0.0000000000
      7888        70  OSM       C5F           -32.6000118445       21.7186073879       11.2194161627  MEMB      70              0.0000000000
      7889        70  OSM       H5F           -33.5008118753       21.8346649094       10.5795633261  MEMB      70              0.0000000000
      7890        70  OSM       H5G           -32.0662876194       20.7672586990       11.0087145190  MEMB      70              0.0000000000
      7891        70  OSM       C6F           -31.5963019707       22.8334989082       10.8348627080  MEMB      70              0.0000000000
      7892        70  OSM       H6F           -30.6990704035       22.6127194467       11.4517532871  MEMB      70              0.0000000000
      7893        70  OSM       H6G           -32.0810580507       23.7874864242       11.1335938565  MEMB      70              0.0000000000
      7894        70  OSM       C7F           -31.1112177669       22.8789580527        9.3729048233  MEMB      70              0.0000000000
      7895        70  OSM       H7F           -30.7781948866       21.8673417226        9.0565996685  MEMB      70              0.0000000000
      7896        70  OSM       H7G           -30.2262114148       23.5235946094        9.1844148492  MEMB      70              0.0000000000
      7897        70  OSM       C8F           -32.2233921629       23.3540118384        8.3597339522  MEMB      70              0.0000000000
      7898        70  OSM       H8F           -32.4693280954       24.3610410594        8.7593945691  MEMB      70              0.0000000000
      7899        70  OSM       H8G           -33.1117460601       22.6898497876        8.4232735288  MEMB      70              0.0000000000
      7900        70  OSM       C9F           -31.8628154577       23.5476535966        6.9039515255  MEMB      70              0.0000000000
      7901        70  OSM       H9F           -31.4783437264       24.5443343736        6.6416370707  MEMB      70              0.0000000000
      7902        70  OSM       C10F          -31.7026678122       22.5907037020        5.9111617402  MEMB      70              0.0000000000
      7903        70  OSM       H10F          -31.3650645504       22.9494346061        4.9276299097  MEMB      70              0.0000000000
      7904        70  OSM       C11F          -31.8285628822       21.1480281554        6.1214591268  MEMB      70              0.0000000000
      7905        70  OSM       H11F          -32.2898293796       20.9170301587        7.1054272268  MEMB      70              0.0000000000
      7906        70  OSM       H11G          -30.8388912201       20.6452597037        6.0756890174  MEMB      70              0.0000000000
      7907        70  OSM       C12F          -32.8164778284       20.3887626260        5.2023260796  MEMB      70              0.0000000000
      7908        70  OSM       H12F          -33.7636260282       20.9693089464        5.2163795627  MEMB      70              0.0000000000
      7909        70  OSM       H12G          -32.8914519318       19.3827397840        5.6677486690  MEMB      70              0.0000000000
      7910        70  OSM       C13F          -32.2829716155       20.0286055625        3.8049264848  MEMB      70              0.0000000000
      7911        70  OSM       H13F          -32.3598503876       19.0079685668        3.3728256770  MEMB      70              0.0000000000
      7912        70  OSM       H13G          -31.1752854109       19.9963014851        3.8843537189  MEMB      70              0.0000000000
      7913        70  OSM       C14F          -32.7174224641       21.0334355137        2.7247119834  MEMB      70              0.0000000000
      7914        70  OSM       H14F          -32.6593068321       22.1222504066        2.9378456910  MEMB      70              0.0000000000
      7915        70  OSM       H14G          -33.8002321592       20.8755657339        2.5325648293  MEMB      70              0.0000000000
      7916        70  OSM       C15F          -32.0757319084       20.6798076882        1.3875571054  MEMB      70              0.0000000000
      7917        70  OSM       H15F          -32.6437009667       21.1988462248        0.5861014545  MEMB      70              0.0000000000
      7918        70  OSM       H15G          -32.3065480002       19.6172193253        1.1596298385  MEMB      70              0.0000000000
      7919        70  OSM       C16F          -30.5679192102       21.0124753462        1.2493571592  MEMB      70              0.0000000000
      7920        70  OSM       H16F          -30.2671079368       20.7096839687        0.2236137847  MEMB      70              0.0000000000
      7921        70  OSM       H16G          -29.9593316311       20.4327976764        1.9759364095  MEMB      70              0.0000000000
      7922        70  OSM       C17F          -30.2463871006       22.5403038012        1.4085641874  MEMB      70              0.0000000000
      7923        70  OSM       H17F          -29.1418994349       22.5346860832        1.2885786048  MEMB      70              0.0000000000
      7924        70  OSM       H17G          -30.4772259426       22.9127621979        2.4294989112  MEMB      70              0.0000000000
      7925        70  OSM       C18F          -30.9747422293       23.4611278564        0.4176818433  MEMB      70              0.0000000000
      7926        70  OSM       H18F          -30.6539110529       23.2108622486       -0.6161249433  MEMB      70              0.0000000000
      7927        70  OSM       H18G          -30.7425006475       24.5210128928        0.6564890688  MEMB      70              0.0000000000
      7928        70  OSM       H18H          -32.0852382477       23.4285977515        0.4255182258  MEMB      70              0.0000000000
      7929        71  OSM       N             -34.7549463098        3.7522314104       21.0381789599  MEMB      71              0.0000000000
      7930        71  OSM       C15           -34.3341920080        5.0873373392       20.4623534063  MEMB      71              0.0000000000
      7931        71  OSM       H15A          -34.5562913988        5.1085420768       19.4056499333  MEMB      71              0.0000000000
      7932        71  OSM       H15B          -33.2634723786        5.1650303421       20.5803498551  MEMB      71              0.0000000000
      7933        71  OSM       H15C          -34.8293176730        5.8796929322       21.0040389926  MEMB      71              0.0000000000
      7934        71  OSM       C14           -34.2982786159        3.7687643296       22.4721732704  MEMB      71              0.0000000000
      7935        71  OSM       H14A          -33.3338612077        4.2504327992       22.4066406762  MEMB      71              0.0000000000
      7936        71  OSM       H14B          -34.2291188433        2.7579430850       22.8461482256  MEMB      71              0.0000000000
      7937        71  OSM       H14C          -35.1051384270        4.2952251269       22.9602472589  MEMB      71              0.0000000000
      7938        71  OSM       C13           -36.1675220188        3.5021908220       20.8862970980  MEMB      71              0.0000000000
      7939        71  OSM       H13A          -36.2690872303        2.4333129028       21.0028496371  MEMB      71              0.0000000000
      7940        71  OSM       H13B          -36.5354817034        3.6837438269       19.8872755591  MEMB      71              0.0000000000
      7941        71  OSM       H13C          -36.8211521086        4.1600645869       21.4398037846  MEMB      71              0.0000000000
      7942        71  OSM       C12           -33.7964120613        2.7864568877       20.2809412129  MEMB      71              0.0000000000
      7943        71  OSM       H12A          -32.9057733389        3.3834669177       20.1515521130  MEMB      71              0.0000000000
      7944        71  OSM       H12B          -34.0606865405        2.6265442249       19.2460562299  MEMB      71              0.0000000000
      7945        71  OSM       C11           -33.4478840441        1.3215406766       20.8914642416  MEMB      71              0.0000000000
      7946        71  OSM       H11A          -32.6348465514        1.4227413240       21.6418304736  MEMB      71              0.0000000000
      7947        71  OSM       H11B          -33.0519402085        0.6618448802       20.0899962339  MEMB      71              0.0000000000
      7948        71  OSM       P             -35.6311637178       -0.1427849938       21.0218998488  MEMB      71              0.0000000000
      7949        71  OSM       O13           -35.1730268546       -1.4328934745       21.5818115650  MEMB      71              0.0000000000
      7950        71  OSM       O14           -37.0223889011        0.2251051426       21.2952948827  MEMB      71              0.0000000000
      7951        71  OSM       O11           -35.4705836432       -0.0859791497       19.4670675734  MEMB      71              0.0000000000
      7952        71  OSM       O12           -34.6144206289        0.9085002716       21.6025179375  MEMB      71              0.0000000000
      7953        71  OSM       C1S           -36.2353333830        0.7343105989       18.7676671096  MEMB      71              0.0000000000
      7954        71  OSM       H1S           -35.9938693460        1.7891628958       19.0192676542  MEMB      71              0.0000000000
      7955        71  OSM       H1T           -37.3167476784        0.4816867056       18.7999957533  MEMB      71              0.0000000000
      7956        71  OSM       NF            -36.4228305270        1.8076305099       16.6995925474  MEMB      71              0.0000000000
      7957        71  OSM       HNF           -37.3610899820        1.6381771543       16.4081072606  MEMB      71              0.0000000000
      7958        71  OSM       C2S           -35.8817303771        0.5986232475       17.2541301923  MEMB      71              0.0000000000
      7959        71  OSM       H2S           -34.7744622748        0.6535111558       17.1815651412  MEMB      71              0.0000000000
      7960        71  OSM       C3S           -36.3829310920       -0.7061568449       16.6682514388  MEMB      71              0.0000000000
      7961        71  OSM       H3S           -37.4922898949       -0.7168328932       16.7276643916  MEMB      71              0.0000000000
      7962        71  OSM       O3            -35.7272061977       -1.7433167894       17.3006960522  MEMB      71              0.0000000000
      7963        71  OSM       HO3           -35.1845843245       -1.3649590719       17.9964020557  MEMB      71              0.0000000000
      7964        71  OSM       C4S           -36.1260241295       -0.7512177547       15.2205115708  MEMB      71              0.0000000000
      7965        71  OSM       H4S           -36.9348400146       -0.2322416154       14.6852728469  MEMB      71              0.0000000000
      7966        71  OSM       C5S           -34.9301120793       -1.0268940665       14.6117636029  MEMB      71              0.0000000000
      7967        71  OSM       H5S           -34.0574033683       -1.0996157776       15.2774147811  MEMB      71              0.0000000000
      7968        71  OSM       C6S           -34.5557291787       -1.1110951773       13.1051299832  MEMB      71              0.0000000000
      7969        71  OSM       H6S           -34.2265185400       -2.1674524602       13.0048754627  MEMB      71              0.0000000000
      7970        71  OSM       H6T           -33.7677206900       -0.4076969737       12.7607546580  MEMB      71              0.0000000000
      7971        71  OSM       C7S           -35.8098202651       -0.8981301264       12.1461228538  MEMB      71              0.0000000000
      7972        71  OSM       H7S           -36.1277376661        0.1646605421       12.0850853601  MEMB      71              0.0000000000
      7973        71  OSM       H7T           -36.6844841920       -1.4307804024       12.5768987015  MEMB      71              0.0000000000
      7974        71  OSM       C8S           -35.5214636611       -1.4267582489       10.7130333035  MEMB      71              0.0000000000
      7975        71  OSM       H8S           -36.4506118067       -1.3890541350       10.1050999891  MEMB      71              0.0000000000
      7976        71  OSM       H8T           -35.0335933954       -2.4246452835       10.6901164227  MEMB      71              0.0000000000
      7977        71  OSM       C9S           -34.5057029554       -0.5101283026        9.9550887287  MEMB      71              0.0000000000
      7978        71  OSM       H9S           -34.2130258433       -0.9481639297        8.9769342622  MEMB      71              0.0000000000
      7979        71  OSM       H9T           -33.6635633045       -0.2138641245       10.6164122596  MEMB      71              0.0000000000
      7980        71  OSM       C10S          -35.1170479512        0.8651346919        9.5933272047  MEMB      71              0.0000000000
      7981        71  OSM       H10S          -35.5532579714        1.4078735387       10.4590505682  MEMB      71              0.0000000000
      7982        71  OSM       H10T          -35.9286958486        0.7029007182        8.8522280939  MEMB      71              0.0000000000
      7983        71  OSM       C11S          -33.9763894333        1.8775810779        9.0443020561  MEMB      71              0.0000000000
      7984        71  OSM       H11S          -33.1873736172        2.0114847425        9.8149152108  MEMB      71              0.0000000000
      7985        71  OSM       H11T          -34.5096221002        2.8211633553        8.8000972378  MEMB      71              0.0000000000
      7986        71  OSM       C12S          -33.4645368048        1.3431504330        7.6434981849  MEMB      71              0.0000000000
      7987        71  OSM       H12S          -33.7495728167        0.2799106401        7.4931764175  MEMB      71              0.0000000000
      7988        71  OSM       H12T          -32.3564982116        1.3972891711        7.7038324597  MEMB      71              0.0000000000
      7989        71  OSM       C13S          -33.8413126667        2.2012494799        6.3956660081  MEMB      71              0.0000000000
      7990        71  OSM       H13S          -34.0035840907        3.2473570250        6.7327832927  MEMB      71              0.0000000000
      7991        71  OSM       H13T          -34.7849139759        1.7939275224        5.9737343962  MEMB      71              0.0000000000
      7992        71  OSM       C14S          -32.7773100567        2.4133564994        5.3177505962  MEMB      71              0.0000000000
      7993        71  OSM       H14S          -32.6633097952        1.4959335261        4.7015860338  MEMB      71              0.0000000000
      7994        71  OSM       H14T          -31.8727569150        2.5215494880        5.9536748260  MEMB      71              0.0000000000
      7995        71  OSM       C15S          -33.1337174720        3.7019104257        4.4655866974  MEMB      71              0.0000000000
      7996        71  OSM       H15S          -33.3676184195        4.5956165483        5.0827575599  MEMB      71              0.0000000000
      7997        71  OSM       H15T          -34.0568416808        3.3471697142        3.9593037871  MEMB      71              0.0000000000
      7998        71  OSM       C16S          -32.1485242826        4.0270510155        3.3401697713  MEMB      71              0.0000000000
      7999        71  OSM       H16S          -32.0707529323        3.3130332624        2.4925549308  MEMB      71              0.0000000000
      8000        71  OSM       H16T          -31.1471687582        4.1043101673        3.8151850299  MEMB      71              0.0000000000
      8001        71  OSM       C17S          -32.5576936963        5.3202204462        2.6613344273  MEMB      71              0.0000000000
      8002        71  OSM       H17S          -33.2335184471        5.9170721117        3.3104497117  MEMB      71              0.0000000000
      8003        71  OSM       H17T          -33.1696921520        5.1174018657        1.7565465874  MEMB      71              0.0000000000
      8004        71  OSM       C18S          -31.3915225958        6.2791392935        2.2064811585  MEMB      71              0.0000000000
      8005        71  OSM       H18S          -30.8611548821        5.8628994064        1.3234333987  MEMB      71              0.0000000000
      8006        71  OSM       H18T          -30.6410400535        6.2189387117        3.0234728448  MEMB      71              0.0000000000
      8007        71  OSM       H18U          -31.7376516786        7.3323028833        2.1332506416  MEMB      71              0.0000000000
      8008        71  OSM       C1F           -35.8068011497        3.0184153182       16.6361757816  MEMB      71              0.0000000000
      8009        71  OSM       OF            -34.7072766055        3.1462593299       17.1279629370  MEMB      71              0.0000000000
      8010        71  OSM       C2F           -36.6905922114        4.2047186988       16.2377487544  MEMB      71              0.0000000000
      8011        71  OSM       H2F           -37.0453343293        4.6838880354       17.1752321982  MEMB      71              0.0000000000
      8012        71  OSM       H2G           -37.6743110751        3.7664225148       15.9647742921  MEMB      71              0.0000000000
      8013        71  OSM       C3F           -36.0749335166        5.1384174991       15.2055388539  MEMB      71              0.0000000000
      8014        71  OSM       H3F           -35.1213478782        5.4866427150       15.6569083402  MEMB      71              0.0000000000
      8015        71  OSM       H3G           -36.5790643482        6.1236482745       15.1081050709  MEMB      71              0.0000000000
      8016        71  OSM       C4F           -36.0674752738        4.5636459794       13.7505562914  MEMB      71              0.0000000000
      8017        71  OSM       H4F           -35.5952666411        3.5609713383       13.8279101291  MEMB      71              0.0000000000
      8018        71  OSM       H4G           -35.4668086355        5.2693548793       13.1377799617  MEMB      71              0.0000000000
      8019        71  OSM       C5F           -37.5346918414        4.4787246198       13.1073225773  MEMB      71              0.0000000000
      8020        71  OSM       H5F           -38.1993902253        5.3689227362       13.1139628321  MEMB      71              0.0000000000
      8021        71  OSM       H5G           -38.1051535249        3.6842022463       13.6342275910  MEMB      71              0.0000000000
      8022        71  OSM       C6F           -37.4077710886        3.9711246943       11.6256370046  MEMB      71              0.0000000000
      8023        71  OSM       H6F           -36.6623785025        3.1486715855       11.6734060527  MEMB      71              0.0000000000
      8024        71  OSM       H6G           -36.9344170907        4.7345900758       10.9718964833  MEMB      71              0.0000000000
      8025        71  OSM       C7F           -38.7228291237        3.4827730645       10.9929875862  MEMB      71              0.0000000000
      8026        71  OSM       H7F           -39.4031213404        4.3514168991       10.8626748967  MEMB      71              0.0000000000
      8027        71  OSM       H7G           -39.1856876779        2.6585988341       11.5767857609  MEMB      71              0.0000000000
      8028        71  OSM       C8F           -38.5033246723        3.0045149263        9.5165901544  MEMB      71              0.0000000000
      8029        71  OSM       H8F           -37.7917620357        2.1513658629        9.5049165467  MEMB      71              0.0000000000
      8030        71  OSM       H8G           -37.8655827365        3.7806282801        9.0419797638  MEMB      71              0.0000000000
      8031        71  OSM       C9F           -39.7018921478        2.7896959960        8.6432099826  MEMB      71              0.0000000000
      8032        71  OSM       H9F           -40.5330627348        3.4895040247        8.8147450322  MEMB      71              0.0000000000
      8033        71  OSM       C10F          -39.8180482610        1.8447290782        7.6897455480  MEMB      71              0.0000000000
      8034        71  OSM       H10F          -40.8052467771        1.6200776178        7.2596635659  MEMB      71              0.0000000000
      8035        71  OSM       C11F          -38.7682964752        0.7928195345        7.2647562865  MEMB      71              0.0000000000
      8036        71  OSM       H11F          -39.2199161384       -0.0381886693        6.6818441661  MEMB      71              0.0000000000
      8037        71  OSM       H11G          -38.1396987904        0.3996793754        8.0921782692  MEMB      71              0.0000000000
      8038        71  OSM       C12F          -37.6435604467        1.3459890956        6.3223656824  MEMB      71              0.0000000000
      8039        71  OSM       H12F          -36.8941111017        0.5607522206        6.0856180330  MEMB      71              0.0000000000
      8040        71  OSM       H12G          -37.2536746864        2.2406930165        6.8532287364  MEMB      71              0.0000000000
      8041        71  OSM       C13F          -38.0760527084        2.0300582119        4.9999291710  MEMB      71              0.0000000000
      8042        71  OSM       H13F          -37.2369548681        2.6174195756        4.5695312499  MEMB      71              0.0000000000
      8043        71  OSM       H13G          -38.9773352696        2.6726702813        5.0951160678  MEMB      71              0.0000000000
      8044        71  OSM       C14F          -38.5273725495        1.1051147743        3.8312328497  MEMB      71              0.0000000000
      8045        71  OSM       H14F          -39.2491276421        0.4534211813        4.3685277080  MEMB      71              0.0000000000
      8046        71  OSM       H14G          -37.6671369424        0.4924038229        3.4864128252  MEMB      71              0.0000000000
      8047        71  OSM       C15F          -39.0910189751        1.9652361432        2.6773911057  MEMB      71              0.0000000000
      8048        71  OSM       H15F          -38.4442737567        2.8468312339        2.4803347337  MEMB      71              0.0000000000
      8049        71  OSM       H15G          -40.0047435766        2.2893948898        3.2199319488  MEMB      71              0.0000000000
      8050        71  OSM       C16F          -39.5854689419        1.3139729022        1.3704039621  MEMB      71              0.0000000000
      8051        71  OSM       H16F          -40.2313671521        2.0269927505        0.8147591932  MEMB      71              0.0000000000
      8052        71  OSM       H16G          -40.2405242957        0.4396459713        1.5723332340  MEMB      71              0.0000000000
      8053        71  OSM       C17F          -38.3695895576        0.8990920736        0.6546659588  MEMB      71              0.0000000000
      8054        71  OSM       H17F          -37.9047936662       -0.0367126203        1.0322317718  MEMB      71              0.0000000000
      8055        71  OSM       H17G          -37.5777364636        1.6777530522        0.6234151772  MEMB      71              0.0000000000
      8056        71  OSM       C18F          -38.6809906454        0.6089409659       -0.7288447838  MEMB      71              0.0000000000
      8057        71  OSM       H18F          -37.9432416426        0.1138989316       -1.3959146917  MEMB      71              0.0000000000
      8058        71  OSM       H18G          -38.9942160438        1.5089318496       -1.3000089440  MEMB      71              0.0000000000
      8059        71  OSM       H18H          -39.6117355740        0.0067124974       -0.8020287224  MEMB      71              0.0000000000
      8060        72  SAPC      N             -23.4312009385      -26.1983098765       21.6071687351  MEMB      72              0.0000000000
      8061        72  SAPC      C12           -23.6679483631      -24.6861656307       21.6510350556  MEMB      72              0.0000000000
      8062        72  SAPC      H12A          -22.8532537394      -24.2101420344       22.1764625715  MEMB      72              0.0000000000
      8063        72  SAPC      H12B          -24.5125505071      -24.5901506377       22.3172393663  MEMB      72              0.0000000000
      8064        72  SAPC      C13           -24.3291793454      -26.9279002869       20.6353626458  MEMB      72              0.0000000000
      8065        72  SAPC      H13A          -25.3581835057      -26.8887772774       20.9609695538  MEMB      72              0.0000000000
      8066        72  SAPC      H13B          -24.3380227434      -26.4007582020       19.6927900893  MEMB      72              0.0000000000
      8067        72  SAPC      H13C          -24.0558991646      -27.9672121451       20.5278975509  MEMB      72              0.0000000000
      8068        72  SAPC      C14           -21.9694348962      -26.3271385917       21.0995408984  MEMB      72              0.0000000000
      8069        72  SAPC      H14A          -21.7391816340      -25.5941713975       20.3405004101  MEMB      72              0.0000000000
      8070        72  SAPC      H14B          -21.4747913904      -25.9385374638       21.9774458069  MEMB      72              0.0000000000
      8071        72  SAPC      H14C          -21.8118788493      -27.3749258161       20.8904519442  MEMB      72              0.0000000000
      8072        72  SAPC      C15           -23.5210779106      -26.7015032795       23.0834017264  MEMB      72              0.0000000000
      8073        72  SAPC      H15A          -23.0607502320      -26.0104686932       23.7740317679  MEMB      72              0.0000000000
      8074        72  SAPC      H15B          -24.5635899782      -26.7336537746       23.3636426584  MEMB      72              0.0000000000
      8075        72  SAPC      H15C          -23.0675427475      -27.6806143431       23.1286498514  MEMB      72              0.0000000000
      8076        72  SAPC      C11           -24.0029493832      -23.9946598442       20.2834241691  MEMB      72              0.0000000000
      8077        72  SAPC      H11A          -23.1736675305      -24.1623162740       19.5633520509  MEMB      72              0.0000000000
      8078        72  SAPC      H11B          -24.1182043791      -22.8965859280       20.4070002886  MEMB      72              0.0000000000
      8079        72  SAPC      P             -25.6608925961      -24.3797206509       18.2634753971  MEMB      72              0.0000000000
      8080        72  SAPC      O13           -24.6729805223      -25.0771634523       17.3846585672  MEMB      72              0.0000000000
      8081        72  SAPC      O14           -27.0768493654      -24.7235900992       18.1582600906  MEMB      72              0.0000000000
      8082        72  SAPC      O12           -25.2757062695      -24.3956555518       19.8077093589  MEMB      72              0.0000000000
      8083        72  SAPC      O11           -25.4950148303      -22.8073612725       18.0259633567  MEMB      72              0.0000000000
      8084        72  SAPC      C1            -24.2425075858      -22.2289520236       17.6382921766  MEMB      72              0.0000000000
      8085        72  SAPC      HA            -24.0586412259      -21.4096079601       18.3657463538  MEMB      72              0.0000000000
      8086        72  SAPC      HB            -23.3883829831      -22.9364650884       17.7032338425  MEMB      72              0.0000000000
      8087        72  SAPC      C2            -24.3534020323      -21.6287287554       16.2070473196  MEMB      72              0.0000000000
      8088        72  SAPC      HS            -24.4726147553      -20.5331522292       16.3478367867  MEMB      72              0.0000000000
      8089        72  SAPC      O21           -25.4665981305      -22.1146601438       15.5104852961  MEMB      72              0.0000000000
      8090        72  SAPC      C21           -25.8684040149      -21.5112706811       14.4213051865  MEMB      72              0.0000000000
      8091        72  SAPC      O22           -25.4863955664      -20.4094667042       14.0116234684  MEMB      72              0.0000000000
      8092        72  SAPC      C22           -26.9792843530      -22.4307065518       13.7743670699  MEMB      72              0.0000000000
      8093        72  SAPC      H2R           -27.9722157738      -22.1310099945       14.1726004311  MEMB      72              0.0000000000
      8094        72  SAPC      H2S           -27.0807176839      -22.1328794499       12.7088475752  MEMB      72              0.0000000000
      8095        72  SAPC      C3            -23.0570969535      -22.0117694721       15.4519165996  MEMB      72              0.0000000000
      8096        72  SAPC      HX            -22.2489567307      -21.5612995342       16.0669834056  MEMB      72              0.0000000000
      8097        72  SAPC      HY            -23.1940000621      -21.5941537331       14.4315362069  MEMB      72              0.0000000000
      8098        72  SAPC      O31           -22.9216224700      -23.4387211911       15.4106406533  MEMB      72              0.0000000000
      8099        72  SAPC      C31           -21.7495312403      -23.8535936520       14.9586491327  MEMB      72              0.0000000000
      8100        72  SAPC      O32           -20.8890236760      -23.1746237067       14.4327459739  MEMB      72              0.0000000000
      8101        72  SAPC      C32           -21.7144113818      -25.3449578754       15.1174593909  MEMB      72              0.0000000000
      8102        72  SAPC      H2X           -21.9952685294      -25.5161508920       16.1786539626  MEMB      72              0.0000000000
      8103        72  SAPC      H2Y           -20.6932966483      -25.7565245383       14.9682659276  MEMB      72              0.0000000000
      8104        72  SAPC      C23           -26.6761905940      -23.9249715378       13.8412416054  MEMB      72              0.0000000000
      8105        72  SAPC      H3R           -27.5566009968      -24.5649784468       13.6185540588  MEMB      72              0.0000000000
      8106        72  SAPC      H3S           -26.4509269989      -24.2305505805       14.8853674925  MEMB      72              0.0000000000
      8107        72  SAPC      C24           -25.4855203417      -24.3153953817       13.0361728348  MEMB      72              0.0000000000
      8108        72  SAPC      H4R           -25.4084167778      -25.4105975404       13.2061969066  MEMB      72              0.0000000000
      8109        72  SAPC      H4S           -24.5708460848      -23.7656500296       13.3451583877  MEMB      72              0.0000000000
      8110        72  SAPC      C25           -25.6691374108      -24.0462791592       11.5455744284  MEMB      72              0.0000000000
      8111        72  SAPC      H5R           -26.4350139909      -24.6133587428       10.9961624089  MEMB      72              0.0000000000
      8112        72  SAPC      C26           -24.9764869794      -23.1555920449       10.8124452717  MEMB      72              0.0000000000
      8113        72  SAPC      H6R           -25.0038754145      -23.1923188556        9.7134004088  MEMB      72              0.0000000000
      8114        72  SAPC      C27           -23.9576989440      -22.2243394584       11.3124856887  MEMB      72              0.0000000000
      8115        72  SAPC      H7R           -24.2065711137      -21.8630677577       12.3332042464  MEMB      72              0.0000000000
      8116        72  SAPC      H7S           -23.8570671549      -21.3470599361       10.6382642202  MEMB      72              0.0000000000
      8117        72  SAPC      C28           -22.6435507093      -22.9905348389       11.5022758775  MEMB      72              0.0000000000
      8118        72  SAPC      H8R           -22.6867857918      -23.7217965753       12.3228775582  MEMB      72              0.0000000000
      8119        72  SAPC      C29           -21.5652252195      -22.9226216544       10.7316143127  MEMB      72              0.0000000000
      8120        72  SAPC      H9R           -20.8201909686      -23.6738687680       11.0325322941  MEMB      72              0.0000000000
      8121        72  SAPC      C210          -21.2847434200      -22.0778734866        9.4577231194  MEMB      72              0.0000000000
      8122        72  SAPC      H10R          -20.2475596250      -21.6858082521        9.3880438084  MEMB      72              0.0000000000
      8123        72  SAPC      H10S          -21.9361483512      -21.1818977285        9.3727535275  MEMB      72              0.0000000000
      8124        72  SAPC      C211          -21.4145691656      -23.1157909910        8.3340412913  MEMB      72              0.0000000000
      8125        72  SAPC      H11R          -20.6803728249      -23.9304623785        8.4192833902  MEMB      72              0.0000000000
      8126        72  SAPC      C212          -22.2493141290      -22.9928957863        7.2006765097  MEMB      72              0.0000000000
      8127        72  SAPC      H12R          -22.1910912151      -23.7965314696        6.4518240494  MEMB      72              0.0000000000
      8128        72  SAPC      C213          -23.1816528007      -21.8577659584        6.9229759603  MEMB      72              0.0000000000
      8129        72  SAPC      H13R          -23.7689773822      -21.6567974196        7.8443784918  MEMB      72              0.0000000000
      8130        72  SAPC      H13S          -23.8918636854      -22.2868491472        6.1841877854  MEMB      72              0.0000000000
      8131        72  SAPC      C214          -22.8508749340      -20.5713453815        6.1672897578  MEMB      72              0.0000000000
      8132        72  SAPC      H14R          -22.8805927093      -19.7052621745        6.8447967103  MEMB      72              0.0000000000
      8133        72  SAPC      C215          -22.2076466168      -20.5136328023        4.9867523285  MEMB      72              0.0000000000
      8134        72  SAPC      H15R          -22.0681565175      -19.5206606349        4.5344809320  MEMB      72              0.0000000000
      8135        72  SAPC      C216          -21.7556661004      -21.6718327847        4.1597188796  MEMB      72              0.0000000000
      8136        72  SAPC      H16R          -22.3980049799      -21.6669954159        3.2532428677  MEMB      72              0.0000000000
      8137        72  SAPC      H16S          -21.9765396574      -22.5980170627        4.7321861778  MEMB      72              0.0000000000
      8138        72  SAPC      C217          -20.2741622343      -21.8680138149        3.9443365105  MEMB      72              0.0000000000
      8139        72  SAPC      H17R          -19.7668295916      -21.5893399156        4.8926373069  MEMB      72              0.0000000000
      8140        72  SAPC      H17S          -19.9872943300      -21.0734972109        3.2226915556  MEMB      72              0.0000000000
      8141        72  SAPC      C218          -19.7455441713      -23.2185089215        3.4524757139  MEMB      72              0.0000000000
      8142        72  SAPC      H18R          -19.9470617736      -24.0215781059        4.1932798152  MEMB      72              0.0000000000
      8143        72  SAPC      H18S          -18.6365490229      -23.1534913678        3.4674165977  MEMB      72              0.0000000000
      8144        72  SAPC      C219          -20.2121749571      -23.5879698734        2.0860706498  MEMB      72              0.0000000000
      8145        72  SAPC      H19R          -19.2939832676      -23.9320314305        1.5637022767  MEMB      72              0.0000000000
      8146        72  SAPC      H19S          -20.5465471317      -22.6602063215        1.5744333649  MEMB      72              0.0000000000
      8147        72  SAPC      C220          -21.2911735846      -24.6592376167        2.1243909462  MEMB      72              0.0000000000
      8148        72  SAPC      H20R          -21.0243853340      -25.7374598468        2.1002681802  MEMB      72              0.0000000000
      8149        72  SAPC      H20S          -21.9796502910      -24.3769392448        1.2993887107  MEMB      72              0.0000000000
      8150        72  SAPC      H20T          -21.9282728219      -24.4773242792        3.0162045787  MEMB      72              0.0000000000
      8151        72  SAPC      C33           -22.6936548615      -26.0874783658       14.1675943891  MEMB      72              0.0000000000
      8152        72  SAPC      H3X           -22.6871796877      -25.6723706535       13.1370777419  MEMB      72              0.0000000000
      8153        72  SAPC      H3Y           -23.7592604308      -26.0506423315       14.4797618212  MEMB      72              0.0000000000
      8154        72  SAPC      C34           -22.4264481237      -27.5784609417       14.1332052353  MEMB      72              0.0000000000
      8155        72  SAPC      H4X           -22.6298816887      -27.9459393158       15.1617455829  MEMB      72              0.0000000000
      8156        72  SAPC      H4Y           -21.3454697633      -27.7882179450       13.9855283012  MEMB      72              0.0000000000
      8157        72  SAPC      C35           -23.2263572046      -28.3424340137       13.0712383368  MEMB      72              0.0000000000
      8158        72  SAPC      H5X           -24.2904141174      -28.1113046090       13.2918814580  MEMB      72              0.0000000000
      8159        72  SAPC      H5Y           -23.1044236577      -29.4330566675       13.2444289737  MEMB      72              0.0000000000
      8160        72  SAPC      C36           -22.9071484977      -28.0753546251       11.5471868186  MEMB      72              0.0000000000
      8161        72  SAPC      H6X           -23.0124580286      -29.0845405863       11.0946664493  MEMB      72              0.0000000000
      8162        72  SAPC      H6Y           -21.8414734026      -27.7721257232       11.4652723651  MEMB      72              0.0000000000
      8163        72  SAPC      C37           -23.8503526199      -27.0657502503       10.8595176216  MEMB      72              0.0000000000
      8164        72  SAPC      H7X           -23.3831355177      -26.0680870391       11.0033835853  MEMB      72              0.0000000000
      8165        72  SAPC      H7Y           -24.8367611225      -27.1825141651       11.3571974623  MEMB      72              0.0000000000
      8166        72  SAPC      C38           -24.0613822625      -27.2913111246        9.3617574014  MEMB      72              0.0000000000
      8167        72  SAPC      H8X           -24.4979851739      -28.2610463341        9.0403348190  MEMB      72              0.0000000000
      8168        72  SAPC      H8Y           -23.0904182082      -27.4584946466        8.8483369650  MEMB      72              0.0000000000
      8169        72  SAPC      C39           -24.9452249891      -26.1904297830        8.8456167578  MEMB      72              0.0000000000
      8170        72  SAPC      H9X           -24.3369200317      -25.2609462715        8.8642185134  MEMB      72              0.0000000000
      8171        72  SAPC      H9Y           -25.9326631486      -26.1100373549        9.3484330873  MEMB      72              0.0000000000
      8172        72  SAPC      C310          -25.3289982894      -26.4517760660        7.3364732860  MEMB      72              0.0000000000
      8173        72  SAPC      H10X          -26.1186872995      -27.2274639458        7.2414989073  MEMB      72              0.0000000000
      8174        72  SAPC      H10Y          -24.5267428488      -26.7301617087        6.6200875341  MEMB      72              0.0000000000
      8175        72  SAPC      C311          -25.9028357208      -25.0659943699        6.8600863526  MEMB      72              0.0000000000
      8176        72  SAPC      H11X          -24.9904978160      -24.5729358033        6.4615213214  MEMB      72              0.0000000000
      8177        72  SAPC      H11Y          -26.2331152419      -24.6334856254        7.8286801738  MEMB      72              0.0000000000
      8178        72  SAPC      C312          -26.8736854024      -25.3141523916        5.6979361101  MEMB      72              0.0000000000
      8179        72  SAPC      H12X          -27.4183529448      -24.3777926053        5.4511799471  MEMB      72              0.0000000000
      8180        72  SAPC      H12Y          -27.7423522079      -25.8980109122        6.0705597921  MEMB      72              0.0000000000
      8181        72  SAPC      C313          -26.3276099892      -26.0856511133        4.4932964421  MEMB      72              0.0000000000
      8182        72  SAPC      H13X          -27.1943032512      -26.3846270668        3.8657793751  MEMB      72              0.0000000000
      8183        72  SAPC      H13Y          -25.8574868588      -27.0400420752        4.8133632837  MEMB      72              0.0000000000
      8184        72  SAPC      C314          -25.3937259127      -25.2949075899        3.6781387562  MEMB      72              0.0000000000
      8185        72  SAPC      H14X          -24.8295345755      -25.9824624932        3.0123486524  MEMB      72              0.0000000000
      8186        72  SAPC      H14Y          -24.6254602394      -24.6673454253        4.1783929591  MEMB      72              0.0000000000
      8187        72  SAPC      C315          -26.1009679953      -24.4163004997        2.6155553263  MEMB      72              0.0000000000
      8188        72  SAPC      H15X          -26.4477433632      -23.4425452630        3.0228233450  MEMB      72              0.0000000000
      8189        72  SAPC      H15Y          -26.9532800716      -24.9281708168        2.1196977758  MEMB      72              0.0000000000
      8190        72  SAPC      C316          -25.1227288161      -23.8149291882        1.5845292157  MEMB      72              0.0000000000
      8191        72  SAPC      H16X          -24.8101939446      -24.6292392558        0.8963871068  MEMB      72              0.0000000000
      8192        72  SAPC      H16Y          -24.1956601568      -23.4506261214        2.0766151508  MEMB      72              0.0000000000
      8193        72  SAPC      C317          -25.8453353331      -22.6311191100        0.7080050044  MEMB      72              0.0000000000
      8194        72  SAPC      H17X          -26.7963014392      -23.0475836068        0.3123518629  MEMB      72              0.0000000000
      8195        72  SAPC      H17Y          -25.1264517516      -22.4196968482       -0.1122560870  MEMB      72              0.0000000000
      8196        72  SAPC      C318          -26.0599277572      -21.2859654182        1.4490955371  MEMB      72              0.0000000000
      8197        72  SAPC      H18X          -26.7285721364      -21.3258071615        2.3354646450  MEMB      72              0.0000000000
      8198        72  SAPC      H18Y          -26.4185557822      -20.5574905798        0.6907881066  MEMB      72              0.0000000000
      8199        72  SAPC      H18Z          -25.1217765068      -20.8736317468        1.8782509605  MEMB      72              0.0000000000
      8200        73  OSM       N               1.6199540279      -37.4488195870       21.4107498162  MEMB      73              0.0000000000
      8201        73  OSM       C15             1.5454353705      -38.7283654871       22.1349937894  MEMB      73              0.0000000000
      8202        73  OSM       H15A            2.1455516593      -38.7143346417       23.0328043050  MEMB      73              0.0000000000
      8203        73  OSM       H15B            1.7740392887      -39.5507831004       21.4733523189  MEMB      73              0.0000000000
      8204        73  OSM       H15C            0.5761558267      -38.8742382223       22.5884450565  MEMB      73              0.0000000000
      8205        73  OSM       C14             3.0054887124      -37.2182456985       20.9194931147  MEMB      73              0.0000000000
      8206        73  OSM       H14A            3.6683465347      -37.7142369274       21.6130435659  MEMB      73              0.0000000000
      8207        73  OSM       H14B            3.1514801936      -36.1543419590       20.8046227402  MEMB      73              0.0000000000
      8208        73  OSM       H14C            3.0698767205      -37.7232811078       19.9670261280  MEMB      73              0.0000000000
      8209        73  OSM       C13             0.5964356838      -37.2950070177       20.3091144796  MEMB      73              0.0000000000
      8210        73  OSM       H13A           -0.3463117249      -37.7281168334       20.6091862393  MEMB      73              0.0000000000
      8211        73  OSM       H13B            0.8216977456      -37.8146579087       19.3895385861  MEMB      73              0.0000000000
      8212        73  OSM       H13C            0.4939395962      -36.2509872196       20.0523711936  MEMB      73              0.0000000000
      8213        73  OSM       C12             1.2084305504      -36.3549343639       22.4283955197  MEMB      73              0.0000000000
      8214        73  OSM       H12A            1.9388213305      -36.2848718826       23.2208730644  MEMB      73              0.0000000000
      8215        73  OSM       H12B            0.2628755859      -36.6337728277       22.8695019268  MEMB      73              0.0000000000
      8216        73  OSM       C11             0.8388321454      -34.8431758749       21.9611970896  MEMB      73              0.0000000000
      8217        73  OSM       H11A            0.7703501999      -34.1693484756       22.8418716630  MEMB      73              0.0000000000
      8218        73  OSM       H11B           -0.1654527645      -34.8764014535       21.4872467768  MEMB      73              0.0000000000
      8219        73  OSM       P               1.4737169620      -32.9909769634       20.3617240401  MEMB      73              0.0000000000
      8220        73  OSM       O13             1.5214076696      -31.9401748097       21.3988854828  MEMB      73              0.0000000000
      8221        73  OSM       O14             2.3879015530      -32.8474506602       19.2744152209  MEMB      73              0.0000000000
      8222        73  OSM       O11            -0.0429913211      -33.1392954390       19.8224341241  MEMB      73              0.0000000000
      8223        73  OSM       O12             1.7496267760      -34.3521600001       20.9785973209  MEMB      73              0.0000000000
      8224        73  OSM       C1S            -0.6112677927      -33.8448662394       18.7682939760  MEMB      73              0.0000000000
      8225        73  OSM       H1S            -1.7034884122      -33.6566440969       18.8454160517  MEMB      73              0.0000000000
      8226        73  OSM       H1T            -0.5273991588      -34.9284346752       18.9988726357  MEMB      73              0.0000000000
      8227        73  OSM       NF              0.8613296075      -34.2562682701       16.9367774231  MEMB      73              0.0000000000
      8228        73  OSM       HNF             1.6696015946      -33.6759052803       16.8744532066  MEMB      73              0.0000000000
      8229        73  OSM       C2S            -0.2417037339      -33.4955770773       17.3304956885  MEMB      73              0.0000000000
      8230        73  OSM       H2S            -1.0639069521      -33.7880516643       16.6429193830  MEMB      73              0.0000000000
      8231        73  OSM       C3S            -0.0331775246      -32.0373038084       17.1158717336  MEMB      73              0.0000000000
      8232        73  OSM       H3S             0.9110186175      -31.6287195468       17.5352444257  MEMB      73              0.0000000000
      8233        73  OSM       O3             -1.1919839313      -31.3433493212       17.5095330033  MEMB      73              0.0000000000
      8234        73  OSM       HO3            -1.7523240966      -32.0157996849       17.9037784127  MEMB      73              0.0000000000
      8235        73  OSM       C4S             0.2945826107      -31.7416102494       15.6568348192  MEMB      73              0.0000000000
      8236        73  OSM       H4S            -0.2799920271      -32.3285132346       14.9251181257  MEMB      73              0.0000000000
      8237        73  OSM       C5S             1.3700371591      -31.1009376875       15.1756262631  MEMB      73              0.0000000000
      8238        73  OSM       H5S             2.1421518877      -30.7402430019       15.8711393035  MEMB      73              0.0000000000
      8239        73  OSM       C6S             1.5719295450      -30.8728054891       13.7372715147  MEMB      73              0.0000000000
      8240        73  OSM       H6S             2.6578473693      -30.9333786063       13.5104802281  MEMB      73              0.0000000000
      8241        73  OSM       H6T             1.3745207166      -29.7866242984       13.6125244955  MEMB      73              0.0000000000
      8242        73  OSM       C7S             0.6800446122      -31.5162502035       12.6614420745  MEMB      73              0.0000000000
      8243        73  OSM       H7S            -0.3469603468      -31.1101577460       12.7825630977  MEMB      73              0.0000000000
      8244        73  OSM       H7T             0.6702077012      -32.6208334220       12.7802702079  MEMB      73              0.0000000000
      8245        73  OSM       C8S             1.1047715656      -31.2420449519       11.2415878852  MEMB      73              0.0000000000
      8246        73  OSM       H8S             2.1323107727      -31.6410480103       11.1027333953  MEMB      73              0.0000000000
      8247        73  OSM       H8T             1.0476269091      -30.1404092043       11.1094759280  MEMB      73              0.0000000000
      8248        73  OSM       C9S             0.1641131956      -31.8839315609       10.2520677007  MEMB      73              0.0000000000
      8249        73  OSM       H9S            -0.8685163270      -31.4744462103       10.2699325983  MEMB      73              0.0000000000
      8250        73  OSM       H9T             0.1139574542      -32.9919260902       10.3165162895  MEMB      73              0.0000000000
      8251        73  OSM       C10S            0.6360770378      -31.8087107072        8.7584159684  MEMB      73              0.0000000000
      8252        73  OSM       H10S            0.7945752996      -30.7648809946        8.4125562824  MEMB      73              0.0000000000
      8253        73  OSM       H10T           -0.1231042217      -32.3226742171        8.1308753825  MEMB      73              0.0000000000
      8254        73  OSM       C11S            1.9803924119      -32.4818457288        8.5981513619  MEMB      73              0.0000000000
      8255        73  OSM       H11S            1.9557725010      -33.4129197644        9.2038049535  MEMB      73              0.0000000000
      8256        73  OSM       H11T            2.7082801134      -31.7671642621        9.0382998173  MEMB      73              0.0000000000
      8257        73  OSM       C12S            2.3646976313      -32.6658463945        7.0746518747  MEMB      73              0.0000000000
      8258        73  OSM       H12S            2.3888867055      -31.6727671295        6.5771283934  MEMB      73              0.0000000000
      8259        73  OSM       H12T            1.4914910980      -33.2426636874        6.7016733948  MEMB      73              0.0000000000
      8260        73  OSM       C13S            3.7522888658      -33.4214463555        6.9931726848  MEMB      73              0.0000000000
      8261        73  OSM       H13S            3.7177063038      -34.1740238056        7.8097219611  MEMB      73              0.0000000000
      8262        73  OSM       H13T            4.5845980228      -32.7031686752        7.1533599988  MEMB      73              0.0000000000
      8263        73  OSM       C14S            3.9774566938      -34.1293427720        5.6550819397  MEMB      73              0.0000000000
      8264        73  OSM       H14S            3.0406804109      -34.6866840058        5.4402758803  MEMB      73              0.0000000000
      8265        73  OSM       H14T            4.7590297600      -34.9147903639        5.7359304163  MEMB      73              0.0000000000
      8266        73  OSM       C15S            4.0945933476      -33.1602281337        4.5588246883  MEMB      73              0.0000000000
      8267        73  OSM       H15S            5.0716143602      -32.6410627381        4.6599134489  MEMB      73              0.0000000000
      8268        73  OSM       H15T            3.1666696230      -32.5496664258        4.5810267769  MEMB      73              0.0000000000
      8269        73  OSM       C16S            4.2519820436      -33.7443473700        3.1820666194  MEMB      73              0.0000000000
      8270        73  OSM       H16S            3.5540633025      -34.6082611692        3.1523409356  MEMB      73              0.0000000000
      8271        73  OSM       H16T            5.2505774676      -34.2232587750        3.0939075176  MEMB      73              0.0000000000
      8272        73  OSM       C17S            4.0530440569      -32.7773189743        2.0150694164  MEMB      73              0.0000000000
      8273        73  OSM       H17S            4.5641431104      -33.1820848051        1.1154781156  MEMB      73              0.0000000000
      8274        73  OSM       H17T            4.3871229732      -31.7594307475        2.3093750110  MEMB      73              0.0000000000
      8275        73  OSM       C18S            2.6128822095      -32.8743844646        1.4948443817  MEMB      73              0.0000000000
      8276        73  OSM       H18S            2.2344965561      -32.1519987146        0.7403227092  MEMB      73              0.0000000000
      8277        73  OSM       H18T            1.9985909227      -32.6645264630        2.3964687591  MEMB      73              0.0000000000
      8278        73  OSM       H18U            2.4531668586      -33.8664743536        1.0209571689  MEMB      73              0.0000000000
      8279        73  OSM       C1F             0.8637010470      -35.5711542662       16.8076711416  MEMB      73              0.0000000000
      8280        73  OSM       OF             -0.1814629089      -36.2519899932       16.9442025584  MEMB      73              0.0000000000
      8281        73  OSM       C2F             2.1669300762      -36.2265836376       16.5440228947  MEMB      73              0.0000000000
      8282        73  OSM       H2F             2.1001769981      -37.2239317880       17.0289573201  MEMB      73              0.0000000000
      8283        73  OSM       H2G             2.9723029868      -35.6209639782       17.0119121163  MEMB      73              0.0000000000
      8284        73  OSM       C3F             2.5252996782      -36.3695039652       15.0230082028  MEMB      73              0.0000000000
      8285        73  OSM       H3F             3.5166174884      -36.8709349908       15.0363124860  MEMB      73              0.0000000000
      8286        73  OSM       H3G             2.5280994414      -35.4022826101       14.4763859853  MEMB      73              0.0000000000
      8287        73  OSM       C4F             1.5697349432      -37.2800956754       14.2943421190  MEMB      73              0.0000000000
      8288        73  OSM       H4F             0.6095163707      -36.7460441831       14.1297506755  MEMB      73              0.0000000000
      8289        73  OSM       H4G             1.3473929907      -38.2283155298       14.8289114029  MEMB      73              0.0000000000
      8290        73  OSM       C5F             2.1067533117      -37.6702786012       12.8835843910  MEMB      73              0.0000000000
      8291        73  OSM       H5F             2.8177964055      -38.5166645558       12.9948025792  MEMB      73              0.0000000000
      8292        73  OSM       H5G             2.7865265946      -36.8785400096       12.5022982020  MEMB      73              0.0000000000
      8293        73  OSM       C6F             1.0532232251      -37.9429643976       11.8168678570  MEMB      73              0.0000000000
      8294        73  OSM       H6F             1.6505103788      -38.2768202665       10.9415913005  MEMB      73              0.0000000000
      8295        73  OSM       H6G             0.5752018602      -37.0012608585       11.4718885767  MEMB      73              0.0000000000
      8296        73  OSM       C7F            -0.0656249493      -38.9939107750       12.1531798533  MEMB      73              0.0000000000
      8297        73  OSM       H7F            -0.6692142301      -38.5354357781       12.9654612869  MEMB      73              0.0000000000
      8298        73  OSM       H7G             0.4068010117      -39.9129640051       12.5611941861  MEMB      73              0.0000000000
      8299        73  OSM       C8F            -1.0080092895      -39.3822400842       11.0392480953  MEMB      73              0.0000000000
      8300        73  OSM       H8F            -1.7162854463      -40.1887635832       11.3259279260  MEMB      73              0.0000000000
      8301        73  OSM       H8G            -0.4387812387      -39.9065269012       10.2421133700  MEMB      73              0.0000000000
      8302        73  OSM       C9F            -1.9560503104      -38.3895075843       10.4774470456  MEMB      73              0.0000000000
      8303        73  OSM       H9F            -2.8957536263      -38.3784565124       11.0491434825  MEMB      73              0.0000000000
      8304        73  OSM       C10F           -1.7736937331      -37.5905520124        9.4566229571  MEMB      73              0.0000000000
      8305        73  OSM       H10F           -2.6582497878      -36.9738131244        9.2393824267  MEMB      73              0.0000000000
      8306        73  OSM       C11F           -0.6178333416      -37.3120825291        8.4436177406  MEMB      73              0.0000000000
      8307        73  OSM       H11F            0.1008994940      -36.5706265087        8.8534795646  MEMB      73              0.0000000000
      8308        73  OSM       H11G           -1.1104393087      -36.9706463808        7.5081595623  MEMB      73              0.0000000000
      8309        73  OSM       C12F            0.2302462842      -38.5741194397        8.1104021129  MEMB      73              0.0000000000
      8310        73  OSM       H12F           -0.4576935204      -39.4065969524        7.8495548390  MEMB      73              0.0000000000
      8311        73  OSM       H12G            0.7843705828      -38.8789120240        9.0238399769  MEMB      73              0.0000000000
      8312        73  OSM       C13F            1.1981127151      -38.2855149209        6.9032572577  MEMB      73              0.0000000000
      8313        73  OSM       H13F            1.7280737721      -39.2393353833        6.6942389298  MEMB      73              0.0000000000
      8314        73  OSM       H13G            2.0136394908      -37.6010493023        7.2206598242  MEMB      73              0.0000000000
      8315        73  OSM       C14F            0.5651212180      -37.7476238452        5.6279269235  MEMB      73              0.0000000000
      8316        73  OSM       H14F            0.5236956816      -36.6415556006        5.7239383690  MEMB      73              0.0000000000
      8317        73  OSM       H14G           -0.4785706320      -38.1284414581        5.6254403334  MEMB      73              0.0000000000
      8318        73  OSM       C15F            1.2118646624      -38.1245155213        4.2968160894  MEMB      73              0.0000000000
      8319        73  OSM       H15F            1.5451879203      -39.1774895656        4.4170752658  MEMB      73              0.0000000000
      8320        73  OSM       H15G            2.2366146935      -37.7082085663        4.1924276244  MEMB      73              0.0000000000
      8321        73  OSM       C16F            0.3861510246      -38.0367352843        2.9550540650  MEMB      73              0.0000000000
      8322        73  OSM       H16F           -0.6349031002      -38.4162421187        3.1735593731  MEMB      73              0.0000000000
      8323        73  OSM       H16G            0.7593224091      -38.6078178985        2.0781694502  MEMB      73              0.0000000000
      8324        73  OSM       C17F            0.3509937145      -36.6139508578        2.3896349041  MEMB      73              0.0000000000
      8325        73  OSM       H17F            1.3926169829      -36.2668881144        2.2196658351  MEMB      73              0.0000000000
      8326        73  OSM       H17G           -0.0303673658      -35.8470782709        3.0973003069  MEMB      73              0.0000000000
      8327        73  OSM       C18F           -0.4032279240      -36.5225830531        1.0882188639  MEMB      73              0.0000000000
      8328        73  OSM       H18F           -1.3284288459      -37.1320420641        1.1711889952  MEMB      73              0.0000000000
      8329        73  OSM       H18G            0.0781938486      -37.0860111319        0.2605088575  MEMB      73              0.0000000000
      8330        73  OSM       H18H           -0.7531732320      -35.5046906968        0.8129826094  MEMB      73              0.0000000000
      8331        74  OSM       N              28.6460583966       22.5115204362       22.7516639588  MEMB      74              0.0000000000
      8332        74  OSM       C15            27.5537194904       23.5342126045       22.8533479180  MEMB      74              0.0000000000
      8333        74  OSM       H15A           26.7368866493       22.9798031510       22.4153819608  MEMB      74              0.0000000000
      8334        74  OSM       H15B           27.9007393986       24.4447658748       22.3876551664  MEMB      74              0.0000000000
      8335        74  OSM       H15C           27.2257047994       23.7992885241       23.8476019629  MEMB      74              0.0000000000
      8336        74  OSM       C14            29.8583023318       22.7882094162       23.4953643400  MEMB      74              0.0000000000
      8337        74  OSM       H14A           29.5741667767       23.0614340440       24.5008568692  MEMB      74              0.0000000000
      8338        74  OSM       H14B           30.3377786084       23.6477778615       23.0507919256  MEMB      74              0.0000000000
      8339        74  OSM       H14C           30.5126786156       21.9373868724       23.3758121982  MEMB      74              0.0000000000
      8340        74  OSM       C13            28.0387297932       21.2656978871       23.2289716993  MEMB      74              0.0000000000
      8341        74  OSM       H13A           27.2644279114       21.0411851443       22.5103267672  MEMB      74              0.0000000000
      8342        74  OSM       H13B           27.6565296914       21.3228176635       24.2374658209  MEMB      74              0.0000000000
      8343        74  OSM       H13C           28.7905933074       20.5109517969       23.0516033387  MEMB      74              0.0000000000
      8344        74  OSM       C12            29.0094629202       22.4004356966       21.2056912309  MEMB      74              0.0000000000
      8345        74  OSM       H12A           29.6076833281       23.2964977128       21.1308234556  MEMB      74              0.0000000000
      8346        74  OSM       H12B           28.1343140062       22.5807344211       20.5990556383  MEMB      74              0.0000000000
      8347        74  OSM       C11            29.8971765594       21.2046105055       20.6146968141  MEMB      74              0.0000000000
      8348        74  OSM       H11A           30.8508594297       21.0709644964       21.1687263346  MEMB      74              0.0000000000
      8349        74  OSM       H11B           30.1196411113       21.3880095691       19.5417590536  MEMB      74              0.0000000000
      8350        74  OSM       P              28.7815964422       19.1781105280       19.3663336188  MEMB      74              0.0000000000
      8351        74  OSM       O13            30.0116377220       18.8034379695       18.6445906691  MEMB      74              0.0000000000
      8352        74  OSM       O14            27.8416862534       18.0778178390       19.6939857767  MEMB      74              0.0000000000
      8353        74  OSM       O11            27.9269831806       20.1781024719       18.4563885131  MEMB      74              0.0000000000
      8354        74  OSM       O12            29.1799230125       19.9985193487       20.6889654986  MEMB      74              0.0000000000
      8355        74  OSM       C1S            28.2878000016       20.5363007869       17.1752631143  MEMB      74              0.0000000000
      8356        74  OSM       H1S            29.3937688649       20.5710881239       17.0755452504  MEMB      74              0.0000000000
      8357        74  OSM       H1T            27.8327379006       21.5496336934       17.1951622527  MEMB      74              0.0000000000
      8358        74  OSM       NF             28.3159572016       19.7922115534       14.8519960789  MEMB      74              0.0000000000
      8359        74  OSM       HNF            27.8772898396       20.4437658259       14.2379464383  MEMB      74              0.0000000000
      8360        74  OSM       C2S            27.6345418732       19.6207518093       16.1018842118  MEMB      74              0.0000000000
      8361        74  OSM       H2S            27.7456007112       18.5466893437       16.3633735542  MEMB      74              0.0000000000
      8362        74  OSM       C3S            26.1583350912       20.0378923764       16.0072938973  MEMB      74              0.0000000000
      8363        74  OSM       H3S            26.0310388585       21.1412058520       15.9787247436  MEMB      74              0.0000000000
      8364        74  OSM       O3             25.5525517780       19.4936822716       17.0935652416  MEMB      74              0.0000000000
      8365        74  OSM       HO3            26.2018030346       18.9677525820       17.5662919676  MEMB      74              0.0000000000
      8366        74  OSM       C4S            25.5462475021       19.4185255269       14.6725002174  MEMB      74              0.0000000000
      8367        74  OSM       H4S            25.2104426971       18.3711967898       14.6541294861  MEMB      74              0.0000000000
      8368        74  OSM       C5S            25.2540743995       20.2470028395       13.6542769476  MEMB      74              0.0000000000
      8369        74  OSM       H5S            25.4723415796       21.3235907565       13.7118804629  MEMB      74              0.0000000000
      8370        74  OSM       C6S            24.6554523575       19.8820632776       12.2990580885  MEMB      74              0.0000000000
      8371        74  OSM       H6S            23.9169443262       20.6730703529       12.0475934711  MEMB      74              0.0000000000
      8372        74  OSM       H6T            24.1390020893       18.9347549482       12.5640247495  MEMB      74              0.0000000000
      8373        74  OSM       C7S            25.7374055205       19.8751589531       11.1705088150  MEMB      74              0.0000000000
      8374        74  OSM       H7S            25.2714229353       19.5617572607       10.2118846869  MEMB      74              0.0000000000
      8375        74  OSM       H7T            26.5905097589       19.1828300590       11.3354775405  MEMB      74              0.0000000000
      8376        74  OSM       C8S            26.3328608505       21.2817506442       11.0611865981  MEMB      74              0.0000000000
      8377        74  OSM       H8S            26.8703651897       21.4880099731       12.0113805355  MEMB      74              0.0000000000
      8378        74  OSM       H8T            25.4553590597       21.9627881783       11.0835361659  MEMB      74              0.0000000000
      8379        74  OSM       C9S            27.1494104267       21.3459955374        9.8224701047  MEMB      74              0.0000000000
      8380        74  OSM       H9S            26.4758736692       21.3907617619        8.9400504138  MEMB      74              0.0000000000
      8381        74  OSM       H9T            27.8162738837       20.4597547388        9.8872095832  MEMB      74              0.0000000000
      8382        74  OSM       C10S           27.9750536956       22.6738070690        9.7426932053  MEMB      74              0.0000000000
      8383        74  OSM       H10S           28.3159206355       22.8367076490       10.7874866579  MEMB      74              0.0000000000
      8384        74  OSM       H10T           27.2781237392       23.4268983729        9.3167082768  MEMB      74              0.0000000000
      8385        74  OSM       C11S           29.1464072602       22.4200464235        8.7755651373  MEMB      74              0.0000000000
      8386        74  OSM       H11S           29.7670594001       21.5177773387        8.9627082048  MEMB      74              0.0000000000
      8387        74  OSM       H11T           29.7276582535       23.3607248942        8.8832332915  MEMB      74              0.0000000000
      8388        74  OSM       C12S           28.8151978226       22.2719526765        7.2730857888  MEMB      74              0.0000000000
      8389        74  OSM       H12S           28.0453564571       22.9742278053        6.8877613560  MEMB      74              0.0000000000
      8390        74  OSM       H12T           28.4202689439       21.2417799419        7.1423326340  MEMB      74              0.0000000000
      8391        74  OSM       C13S           29.9982994404       22.4436755956        6.3524727428  MEMB      74              0.0000000000
      8392        74  OSM       H13S           30.9075101601       21.9696805340        6.7802414127  MEMB      74              0.0000000000
      8393        74  OSM       H13T           30.1972681889       23.4955181195        6.0552193861  MEMB      74              0.0000000000
      8394        74  OSM       C14S           29.8860642605       21.7063526787        5.0222704554  MEMB      74              0.0000000000
      8395        74  OSM       H14S           28.8286881402       21.6581506835        4.6847011378  MEMB      74              0.0000000000
      8396        74  OSM       H14T           30.1111077313       20.6505439686        5.2848434719  MEMB      74              0.0000000000
      8397        74  OSM       C15S           30.8411853494       22.0838077056        3.9473646576  MEMB      74              0.0000000000
      8398        74  OSM       H15S           31.1313387903       21.1666692259        3.3914967360  MEMB      74              0.0000000000
      8399        74  OSM       H15T           31.7599589978       22.5478503995        4.3655020296  MEMB      74              0.0000000000
      8400        74  OSM       C16S           30.2818568715       23.1419165859        2.9345217827  MEMB      74              0.0000000000
      8401        74  OSM       H16S           29.6878760932       23.9200876188        3.4598404676  MEMB      74              0.0000000000
      8402        74  OSM       H16T           29.5946146440       22.5571676142        2.2863801018  MEMB      74              0.0000000000
      8403        74  OSM       C17S           31.2962505876       23.6986381457        1.9619739541  MEMB      74              0.0000000000
      8404        74  OSM       H17S           31.8516684082       22.8571917710        1.4952835877  MEMB      74              0.0000000000
      8405        74  OSM       H17T           32.0978630924       24.1950386868        2.5496180764  MEMB      74              0.0000000000
      8406        74  OSM       C18S           30.8779289750       24.6141937341        0.8586997591  MEMB      74              0.0000000000
      8407        74  OSM       H18S           30.4468618385       25.5288395711        1.3190530852  MEMB      74              0.0000000000
      8408        74  OSM       H18T           30.1472341767       24.0575996470        0.2337123358  MEMB      74              0.0000000000
      8409        74  OSM       H18U           31.6959529025       25.0300932942        0.2324539392  MEMB      74              0.0000000000
      8410        74  OSM       C1F            29.5432929172       19.3015627257       14.5458801274  MEMB      74              0.0000000000
      8411        74  OSM       OF             30.1399163112       18.5812791539       15.3332243008  MEMB      74              0.0000000000
      8412        74  OSM       C2F            30.1181822007       19.8245016149       13.2359502566  MEMB      74              0.0000000000
      8413        74  OSM       H2F            31.0729513840       20.3704670118       13.3929804000  MEMB      74              0.0000000000
      8414        74  OSM       H2G            29.3865044992       20.4891926409       12.7288463623  MEMB      74              0.0000000000
      8415        74  OSM       C3F            30.5480166868       18.6610768992       12.4175506988  MEMB      74              0.0000000000
      8416        74  OSM       H3F            29.9061540320       17.7779008397       12.2118011562  MEMB      74              0.0000000000
      8417        74  OSM       H3G            31.2795344821       18.2423963249       13.1413672310  MEMB      74              0.0000000000
      8418        74  OSM       C4F            31.2264410445       19.1024140252       11.0777127597  MEMB      74              0.0000000000
      8419        74  OSM       H4F            32.1524194256       19.7090722946       11.1717922681  MEMB      74              0.0000000000
      8420        74  OSM       H4G            30.5170650472       19.9130218414       10.8056434275  MEMB      74              0.0000000000
      8421        74  OSM       C5F            31.1450345442       18.0251386195       10.0001932690  MEMB      74              0.0000000000
      8422        74  OSM       H5F            30.0602434720       17.8472979968        9.8391903027  MEMB      74              0.0000000000
      8423        74  OSM       H5G            31.4835310539       17.0363433422       10.3770559593  MEMB      74              0.0000000000
      8424        74  OSM       C6F            31.7298885960       18.4118221130        8.6874893638  MEMB      74              0.0000000000
      8425        74  OSM       H6F            32.8247361966       18.2234391428        8.6993976166  MEMB      74              0.0000000000
      8426        74  OSM       H6G            31.4894348519       19.4567494365        8.3965777595  MEMB      74              0.0000000000
      8427        74  OSM       C7F            31.3868836774       17.4664307850        7.4628973930  MEMB      74              0.0000000000
      8428        74  OSM       H7F            30.3462903333       17.7327003482        7.1790190856  MEMB      74              0.0000000000
      8429        74  OSM       H7G            31.2642959473       16.4381201251        7.8652287120  MEMB      74              0.0000000000
      8430        74  OSM       C8F            32.2602546462       17.7237519051        6.3130253822  MEMB      74              0.0000000000
      8431        74  OSM       H8F            33.2904146887       17.6237279526        6.7168649033  MEMB      74              0.0000000000
      8432        74  OSM       H8G            32.1907601764       18.7952342172        6.0276875433  MEMB      74              0.0000000000
      8433        74  OSM       C9F            32.0164011389       16.6931849291        5.3526981456  MEMB      74              0.0000000000
      8434        74  OSM       H9F            32.2453161595       15.6522080974        5.6246629171  MEMB      74              0.0000000000
      8435        74  OSM       C10F           31.4604658338       16.8597320762        4.1238906949  MEMB      74              0.0000000000
      8436        74  OSM       H10F           31.0973031867       16.0041390328        3.5356113444  MEMB      74              0.0000000000
      8437        74  OSM       C11F           31.0403179075       18.2412341758        3.5820996483  MEMB      74              0.0000000000
      8438        74  OSM       H11F           30.8837501456       19.0542352985        4.3229338894  MEMB      74              0.0000000000
      8439        74  OSM       H11G           30.0272740377       18.1117931560        3.1447113878  MEMB      74              0.0000000000
      8440        74  OSM       C12F           32.1035824685       18.6213367175        2.4336659837  MEMB      74              0.0000000000
      8441        74  OSM       H12F           33.1243627647       18.5946141286        2.8714053558  MEMB      74              0.0000000000
      8442        74  OSM       H12G           31.9179419241       19.6365313116        2.0222799217  MEMB      74              0.0000000000
      8443        74  OSM       C13F           32.0185638283       17.7120350650        1.1932313623  MEMB      74              0.0000000000
      8444        74  OSM       H13F           32.4006963973       16.6759860345        1.3152917765  MEMB      74              0.0000000000
      8445        74  OSM       H13G           32.7480161297       18.1386263247        0.4719554465  MEMB      74              0.0000000000
      8446        74  OSM       C14F           30.6392085896       17.7775746418        0.5555385866  MEMB      74              0.0000000000
      8447        74  OSM       H14F           30.8980447921       17.9965562998       -0.5024646616  MEMB      74              0.0000000000
      8448        74  OSM       H14G           30.0787377373       18.6345807825        0.9865088499  MEMB      74              0.0000000000
      8449        74  OSM       C15F           30.0047342464       16.3450872172        0.5715139186  MEMB      74              0.0000000000
      8450        74  OSM       H15F           29.7962337478       16.0462831189        1.6210700254  MEMB      74              0.0000000000
      8451        74  OSM       H15G           30.6254207134       15.6303214146       -0.0100168488  MEMB      74              0.0000000000
      8452        74  OSM       C16F           28.6729855488       16.4992231424       -0.1591143921  MEMB      74              0.0000000000
      8453        74  OSM       H16F           28.1288142122       15.5347171122       -0.2481462667  MEMB      74              0.0000000000
      8454        74  OSM       H16G           28.8392622173       16.6819013181       -1.2423046249  MEMB      74              0.0000000000
      8455        74  OSM       C17F           27.7238289341       17.5243659312        0.4544243972  MEMB      74              0.0000000000
      8456        74  OSM       H17F           28.0146363513       18.4801951150       -0.0315206539  MEMB      74              0.0000000000
      8457        74  OSM       H17G           27.8320213031       17.4870135880        1.5595117895  MEMB      74              0.0000000000
      8458        74  OSM       C18F           26.2028865380       17.3824910936       -0.0155971938  MEMB      74              0.0000000000
      8459        74  OSM       H18F           25.5776479819       18.1951277140        0.4122098580  MEMB      74              0.0000000000
      8460        74  OSM       H18G           25.8661735794       16.3958334164        0.3683969104  MEMB      74              0.0000000000
      8461        74  OSM       H18H           26.1242392812       17.3644771235       -1.1236625033  MEMB      74              0.0000000000
      8462        75  SAPS      N             -11.3355366234      -36.5054413999       18.5599543173  MEMB      75              0.0000000000
      8463        75  SAPS      HN1           -10.7151389238      -36.0460182045       17.8630776868  MEMB      75              0.0000000000
      8464        75  SAPS      HN2           -10.8428015860      -37.3201618964       18.9783355451  MEMB      75              0.0000000000
      8465        75  SAPS      HN3           -12.2646040439      -36.8747505383       18.2735201164  MEMB      75              0.0000000000
      8466        75  SAPS      C12           -11.5798633709      -35.5834714210       19.6025374655  MEMB      75              0.0000000000
      8467        75  SAPS      H12A          -12.5248343023      -35.1536153574       19.3047896187  MEMB      75              0.0000000000
      8468        75  SAPS      C13           -11.8919235822      -36.1615948433       21.0768668488  MEMB      75              0.0000000000
      8469        75  SAPS      O13A          -11.8965646308      -37.3958254252       21.1838526729  MEMB      75              0.0000000000
      8470        75  SAPS      O13B          -12.2974177909      -35.3691257443       21.9898790257  MEMB      75              0.0000000000
      8471        75  SAPS      C11           -10.5897685458      -34.3650024804       19.6238724189  MEMB      75              0.0000000000
      8472        75  SAPS      H11A          -10.3038665208      -34.1851565337       18.5654602138  MEMB      75              0.0000000000
      8473        75  SAPS      H11B           -9.6378634367      -34.5534837148       20.1648644731  MEMB      75              0.0000000000
      8474        75  SAPS      P             -11.0730072996      -31.8432505951       19.6165183204  MEMB      75              0.0000000000
      8475        75  SAPS      O13           -11.9106805944      -30.9341271351       20.4525866999  MEMB      75              0.0000000000
      8476        75  SAPS      O14            -9.6154952594      -31.5694216892       19.5080734986  MEMB      75              0.0000000000
      8477        75  SAPS      O12           -11.2650550141      -33.2781238797       20.2173039942  MEMB      75              0.0000000000
      8478        75  SAPS      O11           -11.7237633290      -31.9777865721       18.1685547419  MEMB      75              0.0000000000
      8479        75  SAPS      C1            -11.3047893855      -30.9998990924       17.2284986422  MEMB      75              0.0000000000
      8480        75  SAPS      HA            -10.8651814060      -30.1033157430       17.7155346962  MEMB      75              0.0000000000
      8481        75  SAPS      HB            -10.5582655269      -31.5122216404       16.5846440195  MEMB      75              0.0000000000
      8482        75  SAPS      C2            -12.4898423819      -30.6141787359       16.4059992982  MEMB      75              0.0000000000
      8483        75  SAPS      HS            -13.1295697685      -30.0563096516       17.1228340421  MEMB      75              0.0000000000
      8484        75  SAPS      O21           -12.8938383486      -31.8768410049       15.8611290630  MEMB      75              0.0000000000
      8485        75  SAPS      C21           -14.1925767939      -31.8195128877       15.5852066881  MEMB      75              0.0000000000
      8486        75  SAPS      O22           -14.9259631308      -30.8899018796       15.9306148744  MEMB      75              0.0000000000
      8487        75  SAPS      C22           -14.7942267116      -33.0245953993       14.9628699641  MEMB      75              0.0000000000
      8488        75  SAPS      H2R           -14.1060548751      -33.5407523846       14.2597890551  MEMB      75              0.0000000000
      8489        75  SAPS      H2S           -14.8551431336      -33.6858306845       15.8535875403  MEMB      75              0.0000000000
      8490        75  SAPS      C3            -12.1898725623      -29.5816334411       15.3036865562  MEMB      75              0.0000000000
      8491        75  SAPS      HX            -11.8326602169      -28.6170787313       15.7236324223  MEMB      75              0.0000000000
      8492        75  SAPS      HY            -13.1359385928      -29.4753449379       14.7309886701  MEMB      75              0.0000000000
      8493        75  SAPS      O31           -11.0976392254      -30.0890714230       14.5006357204  MEMB      75              0.0000000000
      8494        75  SAPS      C31           -11.3561288463      -30.4179199840       13.1912281617  MEMB      75              0.0000000000
      8495        75  SAPS      O32           -12.3863196020      -30.3332909151       12.5743541472  MEMB      75              0.0000000000
      8496        75  SAPS      C32           -10.0806456811      -31.0482793154       12.5854170091  MEMB      75              0.0000000000
      8497        75  SAPS      H2X            -9.4430302373      -31.6207629900       13.2925447110  MEMB      75              0.0000000000
      8498        75  SAPS      H2Y            -9.4228161262      -30.3156668371       12.0707712763  MEMB      75              0.0000000000
      8499        75  SAPS      C23           -16.1722557626      -32.8358218989       14.2501175842  MEMB      75              0.0000000000
      8500        75  SAPS      H3R           -16.9137305897      -32.2209367702       14.8036988635  MEMB      75              0.0000000000
      8501        75  SAPS      H3S           -16.5297480458      -33.8868245114       14.2063708155  MEMB      75              0.0000000000
      8502        75  SAPS      C24           -15.9516482911      -32.2822216981       12.8273833283  MEMB      75              0.0000000000
      8503        75  SAPS      H4R           -15.4049489207      -31.3263933457       12.9751433464  MEMB      75              0.0000000000
      8504        75  SAPS      H4S           -16.9045229847      -31.8803929179       12.4213242155  MEMB      75              0.0000000000
      8505        75  SAPS      C25           -15.3775579916      -33.2940756545       11.8196254693  MEMB      75              0.0000000000
      8506        75  SAPS      H5R           -14.4472979212      -33.7957639112       12.1244611365  MEMB      75              0.0000000000
      8507        75  SAPS      C26           -15.6896907050      -33.3467511124       10.5085177658  MEMB      75              0.0000000000
      8508        75  SAPS      H6R           -15.3254469270      -34.1406303687        9.8398757752  MEMB      75              0.0000000000
      8509        75  SAPS      C27           -16.7088141404      -32.4320184207        9.7167268032  MEMB      75              0.0000000000
      8510        75  SAPS      H7R           -17.4652883906      -32.0102138142       10.4125346510  MEMB      75              0.0000000000
      8511        75  SAPS      H7S           -17.2311050883      -32.9464369827        8.8819165997  MEMB      75              0.0000000000
      8512        75  SAPS      C28           -16.2388904987      -31.0860377903        9.2027714271  MEMB      75              0.0000000000
      8513        75  SAPS      H8R           -16.6772533515      -30.1969255457        9.6795488824  MEMB      75              0.0000000000
      8514        75  SAPS      C29           -15.5696633362      -30.8995491068        8.0172591856  MEMB      75              0.0000000000
      8515        75  SAPS      H9R           -15.1890026184      -29.8828096180        7.8402335901  MEMB      75              0.0000000000
      8516        75  SAPS      C210          -15.1406384532      -31.9416612844        7.0723325595  MEMB      75              0.0000000000
      8517        75  SAPS      H10R          -15.2428275941      -31.6636687900        6.0015385597  MEMB      75              0.0000000000
      8518        75  SAPS      H10S          -15.6047051047      -32.9450434250        7.1827290019  MEMB      75              0.0000000000
      8519        75  SAPS      C211          -13.6634398268      -32.0992148503        7.2044696802  MEMB      75              0.0000000000
      8520        75  SAPS      H11R          -13.3678194432      -32.5456079892        8.1653764347  MEMB      75              0.0000000000
      8521        75  SAPS      C212          -12.6613081678      -31.8298321956        6.3692172751  MEMB      75              0.0000000000
      8522        75  SAPS      H12R          -11.6020977655      -31.9975968407        6.6140202229  MEMB      75              0.0000000000
      8523        75  SAPS      C213          -12.8994651512      -31.2474246853        4.9897212446  MEMB      75              0.0000000000
      8524        75  SAPS      H13R          -13.6800118444      -31.8444322059        4.4714070578  MEMB      75              0.0000000000
      8525        75  SAPS      H13S          -11.9148641047      -31.2550059759        4.4751104397  MEMB      75              0.0000000000
      8526        75  SAPS      C214          -13.4112896769      -29.7918004939        5.0354128875  MEMB      75              0.0000000000
      8527        75  SAPS      H14R          -13.3585429830      -29.2497172576        5.9911136583  MEMB      75              0.0000000000
      8528        75  SAPS      C215          -13.6586429856      -29.1515092004        3.8434384978  MEMB      75              0.0000000000
      8529        75  SAPS      H15R          -13.9501988961      -28.0919426970        3.8915387782  MEMB      75              0.0000000000
      8530        75  SAPS      C216          -13.4731551256      -29.8237584403        2.5158735044  MEMB      75              0.0000000000
      8531        75  SAPS      H16R          -13.4433327735      -30.9338542156        2.4824255925  MEMB      75              0.0000000000
      8532        75  SAPS      H16S          -12.6135772280      -29.3583047332        1.9878581422  MEMB      75              0.0000000000
      8533        75  SAPS      C217          -14.7142907965      -29.3863075855        1.5697973743  MEMB      75              0.0000000000
      8534        75  SAPS      H17R          -14.5558642575      -28.3825440024        1.1207087109  MEMB      75              0.0000000000
      8535        75  SAPS      H17S          -15.6230414103      -29.1592026474        2.1672215873  MEMB      75              0.0000000000
      8536        75  SAPS      C218          -14.9047489037      -30.3636534067        0.3757486736  MEMB      75              0.0000000000
      8537        75  SAPS      H18R          -13.9496327387      -30.8463591136        0.0773043239  MEMB      75              0.0000000000
      8538        75  SAPS      H18S          -15.4678899670      -29.8463237041       -0.4302068881  MEMB      75              0.0000000000
      8539        75  SAPS      C219          -15.7153622850      -31.6906953744        0.6837504803  MEMB      75              0.0000000000
      8540        75  SAPS      H19R          -15.0447111402      -32.3151029773        1.3119726172  MEMB      75              0.0000000000
      8541        75  SAPS      H19S          -15.9251429096      -32.2148574297       -0.2731036248  MEMB      75              0.0000000000
      8542        75  SAPS      C220          -17.0679045848      -31.5686395462        1.3593645808  MEMB      75              0.0000000000
      8543        75  SAPS      H20R          -17.8681474707      -31.4297335389        0.6013143306  MEMB      75              0.0000000000
      8544        75  SAPS      H20S          -17.1968224907      -30.6801015299        2.0137349553  MEMB      75              0.0000000000
      8545        75  SAPS      H20T          -17.2621528163      -32.5053887390        1.9242431694  MEMB      75              0.0000000000
      8546        75  SAPS      C33           -10.5959549022      -32.1853783593       11.6014614582  MEMB      75              0.0000000000
      8547        75  SAPS      H3X           -11.2778005407      -31.7953673281       10.8157775721  MEMB      75              0.0000000000
      8548        75  SAPS      H3Y           -11.2082885521      -32.9487677538       12.1273938399  MEMB      75              0.0000000000
      8549        75  SAPS      C34            -9.3527057688      -32.8543070060       10.8813411756  MEMB      75              0.0000000000
      8550        75  SAPS      H4X            -8.9561996224      -33.7115506800       11.4663520938  MEMB      75              0.0000000000
      8551        75  SAPS      H4Y            -8.5647039793      -32.0713222544       10.8989161057  MEMB      75              0.0000000000
      8552        75  SAPS      C35            -9.6835350223      -33.3351611299        9.4961819809  MEMB      75              0.0000000000
      8553        75  SAPS      H5X            -8.7765680066      -33.8333888877        9.0918291624  MEMB      75              0.0000000000
      8554        75  SAPS      H5Y            -9.9644830685      -32.5508241987        8.7611951627  MEMB      75              0.0000000000
      8555        75  SAPS      C36           -10.8037072523      -34.4430190124        9.5214074771  MEMB      75              0.0000000000
      8556        75  SAPS      H6X           -11.7818813235      -34.2137351766        9.9956700009  MEMB      75              0.0000000000
      8557        75  SAPS      H6Y           -10.4018704841      -35.3470042250       10.0270337901  MEMB      75              0.0000000000
      8558        75  SAPS      C37           -11.0835770685      -34.9931735364        8.1262456589  MEMB      75              0.0000000000
      8559        75  SAPS      H7X           -10.1799526993      -35.4885954579        7.7111058051  MEMB      75              0.0000000000
      8560        75  SAPS      H7Y           -11.3432227228      -34.1951013222        7.3982452694  MEMB      75              0.0000000000
      8561        75  SAPS      C38           -12.1869881060      -36.0831532981        8.1946494281  MEMB      75              0.0000000000
      8562        75  SAPS      H8X           -13.0252780786      -35.5932907850        8.7346729914  MEMB      75              0.0000000000
      8563        75  SAPS      H8Y           -11.8617433081      -37.0525129443        8.6292510167  MEMB      75              0.0000000000
      8564        75  SAPS      C39           -12.7322604619      -36.3027524869        6.7705703682  MEMB      75              0.0000000000
      8565        75  SAPS      H9X           -13.0539220686      -35.2992365518        6.4187040806  MEMB      75              0.0000000000
      8566        75  SAPS      H9Y           -13.6971577671      -36.8523697349        6.8054219023  MEMB      75              0.0000000000
      8567        75  SAPS      C310          -11.7318622605      -36.8442780394        5.7249046765  MEMB      75              0.0000000000
      8568        75  SAPS      H10X          -11.5893500379      -37.8952577343        6.0557424280  MEMB      75              0.0000000000
      8569        75  SAPS      H10Y          -10.6767027993      -36.5219795789        5.8556065977  MEMB      75              0.0000000000
      8570        75  SAPS      C311          -12.3544006875      -36.8398972788        4.3528361120  MEMB      75              0.0000000000
      8571        75  SAPS      H11X          -13.4642301961      -36.8474431434        4.3024127525  MEMB      75              0.0000000000
      8572        75  SAPS      H11Y          -12.0799699073      -37.8289804873        3.9277199146  MEMB      75              0.0000000000
      8573        75  SAPS      C312          -11.8270010327      -35.6422566851        3.4476137426  MEMB      75              0.0000000000
      8574        75  SAPS      H12X          -10.7365606542      -35.6910504890        3.2405389337  MEMB      75              0.0000000000
      8575        75  SAPS      H12Y          -11.9988040159      -34.6877406600        3.9895581410  MEMB      75              0.0000000000
      8576        75  SAPS      C313          -12.4664986008      -35.7754451940        2.0031789280  MEMB      75              0.0000000000
      8577        75  SAPS      H13X          -13.5732350148      -35.6784103672        1.9968740075  MEMB      75              0.0000000000
      8578        75  SAPS      H13Y          -12.3373569652      -36.8341073788        1.6919251707  MEMB      75              0.0000000000
      8579        75  SAPS      C314          -11.9857261093      -34.8429252545        0.9211682615  MEMB      75              0.0000000000
      8580        75  SAPS      H14X          -10.8862753060      -34.8548848497        0.7618387749  MEMB      75              0.0000000000
      8581        75  SAPS      H14Y          -12.1812557703      -33.7780298185        1.1703395394  MEMB      75              0.0000000000
      8582        75  SAPS      C315          -12.8009316793      -34.9392529299       -0.4213889054  MEMB      75              0.0000000000
      8583        75  SAPS      H15X          -12.5095828561      -33.9660670864       -0.8712184646  MEMB      75              0.0000000000
      8584        75  SAPS      H15Y          -13.8900240349      -34.8801699052       -0.2099460211  MEMB      75              0.0000000000
      8585        75  SAPS      C316          -12.4258554388      -36.1340784583       -1.2928648681  MEMB      75              0.0000000000
      8586        75  SAPS      H16X          -12.7776572537      -37.1054165255       -0.8841359453  MEMB      75              0.0000000000
      8587        75  SAPS      H16Y          -11.3211454194      -36.1846741872       -1.3995269859  MEMB      75              0.0000000000
      8588        75  SAPS      C317          -13.0093705962      -36.0918690286       -2.5923495717  MEMB      75              0.0000000000
      8589        75  SAPS      H17X          -12.6929055205      -37.0452928646       -3.0668533250  MEMB      75              0.0000000000
      8590        75  SAPS      H17Y          -12.5343426315      -35.3354153690       -3.2529910267  MEMB      75              0.0000000000
      8591        75  SAPS      C318          -14.5638446918      -35.9812070883       -2.7961771258  MEMB      75              0.0000000000
      8592        75  SAPS      H18X          -14.9165432911      -35.0062206728       -2.3970207484  MEMB      75              0.0000000000
      8593        75  SAPS      H18Y          -15.0645613812      -36.7315768985       -2.1476797974  MEMB      75              0.0000000000
      8594        75  SAPS      H18Z          -14.7446754792      -36.1571066360       -3.8781579349  MEMB      75              0.0000000000
      8595        76  CHL1      C3            -34.7611054425       10.5097039479       17.4514000000  MEMB      76              0.0000000000
      8596        76  CHL1      H3            -34.4582118175       11.5402344585       17.7352500000  MEMB      76              0.0000000000
      8597        76  CHL1      O3            -34.6946239575        9.5898278521       18.5486000000  MEMB      76              0.0000000000
      8598        76  CHL1      H3'           -35.1617918228       10.0447065463       19.2531900000  MEMB      76              0.0000000000
      8599        76  CHL1      C4            -36.0599805169       10.4906596156       16.6951100000  MEMB      76              0.0000000000
      8600        76  CHL1      H4A           -36.4330989662        9.4465035503       16.6255300000  MEMB      76              0.0000000000
      8601        76  CHL1      H4B           -36.9481622015       10.8481526025       17.2587200000  MEMB      76              0.0000000000
      8602        76  CHL1      C5            -36.0462768454       11.0199394258       15.2714300000  MEMB      76              0.0000000000
      8603        76  CHL1      C6            -36.9554425272       11.9219601780       14.8678000000  MEMB      76              0.0000000000
      8604        76  CHL1      H6            -37.6400607951       12.2702262534       15.6552100000  MEMB      76              0.0000000000
      8605        76  CHL1      C7            -37.0389599632       12.5147646980       13.5423400000  MEMB      76              0.0000000000
      8606        76  CHL1      H7A           -38.0257776745       12.9319610201       13.2482900000  MEMB      76              0.0000000000
      8607        76  CHL1      H7B           -36.4222233105       13.4388235934       13.5345300000  MEMB      76              0.0000000000
      8608        76  CHL1      C8            -36.2844770057       11.5973409950       12.5000800000  MEMB      76              0.0000000000
      8609        76  CHL1      H8            -36.9309855318       10.7210980598       12.2797200000  MEMB      76              0.0000000000
      8610        76  CHL1      C14           -36.0327058838       12.3442136576       11.1845800000  MEMB      76              0.0000000000
      8611        76  CHL1      H14           -35.3230360067       13.1928682197       11.2869300000  MEMB      76              0.0000000000
      8612        76  CHL1      C15           -37.2452924578       12.9760752474       10.5146000000  MEMB      76              0.0000000000
      8613        76  CHL1      H15A          -38.1571615227       12.3496475553       10.6166900000  MEMB      76              0.0000000000
      8614        76  CHL1      H15B          -37.4501924744       14.0263592441       10.8133100000  MEMB      76              0.0000000000
      8615        76  CHL1      C16           -36.9896746781       12.9280751106        9.0214500000  MEMB      76              0.0000000000
      8616        76  CHL1      H16A          -37.6716417447       12.2484136029        8.4671000000  MEMB      76              0.0000000000
      8617        76  CHL1      H16B          -37.0444829380       13.9230209815        8.5301300000  MEMB      76              0.0000000000
      8618        76  CHL1      C17           -35.4614127226       12.4709753585        8.8294700000  MEMB      76              0.0000000000
      8619        76  CHL1      H17           -34.8013126667       13.3415274576        9.0312500000  MEMB      76              0.0000000000
      8620        76  CHL1      C13           -35.3123310690       11.5673486605       10.0381100000  MEMB      76              0.0000000000
      8621        76  CHL1      C18           -35.9806117959       10.2365943030        9.8305400000  MEMB      76              0.0000000000
      8622        76  CHL1      H18A          -35.4850099190        9.6462211635        9.0304400000  MEMB      76              0.0000000000
      8623        76  CHL1      H18B          -35.9836467068        9.5355315596       10.6924100000  MEMB      76              0.0000000000
      8624        76  CHL1      H18C          -37.0712934011       10.3854011329        9.6802300000  MEMB      76              0.0000000000
      8625        76  CHL1      C12           -33.8460337838       11.2780122585       10.5650800000  MEMB      76              0.0000000000
      8626        76  CHL1      H12A          -33.2439680820       10.7565057755        9.7905600000  MEMB      76              0.0000000000
      8627        76  CHL1      H12B          -33.3718064049       12.2699452660       10.7247400000  MEMB      76              0.0000000000
      8628        76  CHL1      C11           -33.9965200025       10.5034198181       11.9333200000  MEMB      76              0.0000000000
      8629        76  CHL1      H11A          -34.2548741037        9.4430315627       11.7255900000  MEMB      76              0.0000000000
      8630        76  CHL1      H11B          -32.9991798006       10.4183143183       12.4153800000  MEMB      76              0.0000000000
      8631        76  CHL1      C9            -34.9107224117       11.1659476553       13.0047700000  MEMB      76              0.0000000000
      8632        76  CHL1      H9            -34.3305644865       12.0719833879       13.2819700000  MEMB      76              0.0000000000
      8633        76  CHL1      C10           -34.9503447429       10.4405658992       14.3402400000  MEMB      76              0.0000000000
      8634        76  CHL1      C19           -35.1696470639        8.9533495799       13.9574400000  MEMB      76              0.0000000000
      8635        76  CHL1      H19A          -34.1609581658        8.6059814132       13.6472700000  MEMB      76              0.0000000000
      8636        76  CHL1      H19B          -35.4131426354        8.2921359277       14.8164100000  MEMB      76              0.0000000000
      8637        76  CHL1      H19C          -35.9288875946        8.8794007181       13.1497200000  MEMB      76              0.0000000000
      8638        76  CHL1      C1            -33.6345563255       10.5444461145       15.0748500000  MEMB      76              0.0000000000
      8639        76  CHL1      H1A           -32.8095910262        9.9832152823       14.5862200000  MEMB      76              0.0000000000
      8640        76  CHL1      H1B           -33.3595877067       11.6207792345       15.0897200000  MEMB      76              0.0000000000
      8641        76  CHL1      C2            -33.6129266617        9.9285516825       16.4867800000  MEMB      76              0.0000000000
      8642        76  CHL1      H2A           -32.5751493523       10.0304563920       16.8701200000  MEMB      76              0.0000000000
      8643        76  CHL1      H2B           -33.9984676990        8.8868979781       16.5123700000  MEMB      76              0.0000000000
      8644        76  CHL1      C20           -35.0308264494       12.0438656239        7.3850600000  MEMB      76              0.0000000000
      8645        76  CHL1      H20           -34.8658281661       13.0912885810        7.0533800000  MEMB      76              0.0000000000
      8646        76  CHL1      C21           -36.1140878379       11.3152595393        6.5273600000  MEMB      76              0.0000000000
      8647        76  CHL1      H21A          -36.9356218245       12.0463227071        6.3694000000  MEMB      76              0.0000000000
      8648        76  CHL1      H21B          -36.5312522509       10.3482736581        6.8812200000  MEMB      76              0.0000000000
      8649        76  CHL1      H21C          -35.7199427357       11.0635191381        5.5195900000  MEMB      76              0.0000000000
      8650        76  CHL1      C22           -33.6709599379       11.3627293539        7.2828700000  MEMB      76              0.0000000000
      8651        76  CHL1      H22A          -32.8266444747       11.8125605888        7.8477700000  MEMB      76              0.0000000000
      8652        76  CHL1      H22B          -33.8406118625       10.3145785767        7.6098700000  MEMB      76              0.0000000000
      8653        76  CHL1      C23           -33.1030243705       11.3789514395        5.8245600000  MEMB      76              0.0000000000
      8654        76  CHL1      H23A          -33.6441985187       10.6971345287        5.1342100000  MEMB      76              0.0000000000
      8655        76  CHL1      H23B          -33.3232130987       12.4109293772        5.4769000000  MEMB      76              0.0000000000
      8656        76  CHL1      C24           -31.5938115208       11.1746902472        5.8104900000  MEMB      76              0.0000000000
      8657        76  CHL1      H24A          -31.1367254513       12.0156938129        6.3745000000  MEMB      76              0.0000000000
      8658        76  CHL1      H24B          -31.2844518929       10.2275507298        6.3019600000  MEMB      76              0.0000000000
      8659        76  CHL1      C25           -31.0445012438       11.2385915846        4.3979200000  MEMB      76              0.0000000000
      8660        76  CHL1      H25           -31.6500419993       11.9605365234        3.8093400000  MEMB      76              0.0000000000
      8661        76  CHL1      C26           -29.5829663351       11.5910566932        4.4657500000  MEMB      76              0.0000000000
      8662        76  CHL1      H26A          -29.0183275903       10.9624165148        5.1870700000  MEMB      76              0.0000000000
      8663        76  CHL1      H26B          -29.2188922592       11.5520925732        3.4168200000  MEMB      76              0.0000000000
      8664        76  CHL1      H26C          -29.4866280155       12.6441605119        4.8063500000  MEMB      76              0.0000000000
      8665        76  CHL1      C27           -31.0913083154        9.8969749308        3.7582300000  MEMB      76              0.0000000000
      8666        76  CHL1      H27A          -32.1002306129        9.4418863126        3.8545800000  MEMB      76              0.0000000000
      8667        76  CHL1      H27B          -30.7972009560        9.8496893942        2.6879100000  MEMB      76              0.0000000000
      8668        76  CHL1      H27C          -30.3822604837        9.1777796966        4.2212000000  MEMB      76              0.0000000000
      8669        77  SLPC      N              35.3169023358       -6.6537479246       15.7117970592  MEMB      77              0.0000000000
      8670        77  SLPC      C13            36.2682389829       -7.6458084997       15.1193130373  MEMB      77              0.0000000000
      8671        77  SLPC      H13A           36.1252045280       -8.4825969129       15.7869404163  MEMB      77              0.0000000000
      8672        77  SLPC      H13B           35.9753087262       -7.8617354186       14.1024712363  MEMB      77              0.0000000000
      8673        77  SLPC      H13C           37.2616875949       -7.3462369748       15.4188402262  MEMB      77              0.0000000000
      8674        77  SLPC      C14            33.9513511799       -6.8295453169       15.0634431571  MEMB      77              0.0000000000
      8675        77  SLPC      H14A           34.0047733422       -6.3024104657       14.1223399699  MEMB      77              0.0000000000
      8676        77  SLPC      H14B           33.4361719862       -7.7778159106       15.0213312994  MEMB      77              0.0000000000
      8677        77  SLPC      H14C           33.3302995776       -6.0810090233       15.5328985508  MEMB      77              0.0000000000
      8678        77  SLPC      C15            35.7358717758       -5.2878233404       15.3238411687  MEMB      77              0.0000000000
      8679        77  SLPC      H15A           34.9474627752       -4.6941280153       15.7624039403  MEMB      77              0.0000000000
      8680        77  SLPC      H15B           36.7094292090       -5.0998186417       15.7519068990  MEMB      77              0.0000000000
      8681        77  SLPC      H15C           35.6007083956       -5.1507834395       14.2611319356  MEMB      77              0.0000000000
      8682        77  SLPC      C12            35.2586120533       -6.8168758651       17.2455946137  MEMB      77              0.0000000000
      8683        77  SLPC      H12A           35.0650772900       -5.9103834610       17.7998650087  MEMB      77              0.0000000000
      8684        77  SLPC      H12B           36.2897912991       -6.9441749393       17.5403220399  MEMB      77              0.0000000000
      8685        77  SLPC      C11            34.4010766200       -8.0143261389       17.8044335413  MEMB      77              0.0000000000
      8686        77  SLPC      H11A           33.3600647179       -7.8834184529       17.4390869270  MEMB      77              0.0000000000
      8687        77  SLPC      H11B           34.4414013317       -7.8876105774       18.9074466757  MEMB      77              0.0000000000
      8688        77  SLPC      P              36.1660739183       -9.9054175551       18.1671134013  MEMB      77              0.0000000000
      8689        77  SLPC      O13            37.3773151909       -9.3835221505       17.4898506400  MEMB      77              0.0000000000
      8690        77  SLPC      O14            36.0936711019       -9.6724871296       19.6819635810  MEMB      77              0.0000000000
      8691        77  SLPC      O12            34.8553992770       -9.2534155726       17.4979287802  MEMB      77              0.0000000000
      8692        77  SLPC      O11            36.0946804574      -11.4445044324       17.8947210232  MEMB      77              0.0000000000
      8693        77  SLPC      C1             34.9916473290      -12.1619153764       17.4336727504  MEMB      77              0.0000000000
      8694        77  SLPC      HA             35.0422422500      -13.2221221377       17.7618842864  MEMB      77              0.0000000000
      8695        77  SLPC      HB             34.0651871129      -11.6504358577       17.7718759011  MEMB      77              0.0000000000
      8696        77  SLPC      C2             34.9163658357      -12.1832045388       15.8622785982  MEMB      77              0.0000000000
      8697        77  SLPC      HS             34.8931305936      -13.2302285196       15.4914392823  MEMB      77              0.0000000000
      8698        77  SLPC      O21            36.0611391491      -11.4971369091       15.3651196183  MEMB      77              0.0000000000
      8699        77  SLPC      C21            37.1902388066      -12.2281363971       15.3530028638  MEMB      77              0.0000000000
      8700        77  SLPC      O22            37.3195350591      -13.2809404336       15.9142379447  MEMB      77              0.0000000000
      8701        77  SLPC      C22            38.3267546886      -11.4102058810       14.5820194294  MEMB      77              0.0000000000
      8702        77  SLPC      H2R            38.8792543327      -10.8163336182       15.3412168212  MEMB      77              0.0000000000
      8703        77  SLPC      H2S            39.1033779341      -12.1696041847       14.3485857286  MEMB      77              0.0000000000
      8704        77  SLPC      C3             33.6959024935      -11.5864945434       15.1593215853  MEMB      77              0.0000000000
      8705        77  SLPC      HX             33.2857756942      -10.5862160620       15.4153682976  MEMB      77              0.0000000000
      8706        77  SLPC      HY             32.8733618677      -12.2951034575       15.3951630233  MEMB      77              0.0000000000
      8707        77  SLPC      O31            33.9246547055      -11.6561090346       13.7382510330  MEMB      77              0.0000000000
      8708        77  SLPC      C31            33.7319829145      -10.5108933173       13.0531946952  MEMB      77              0.0000000000
      8709        77  SLPC      O32            33.3755405507       -9.4278588439       13.4629083959  MEMB      77              0.0000000000
      8710        77  SLPC      C32            34.2862894407      -10.6930176683       11.6162032225  MEMB      77              0.0000000000
      8711        77  SLPC      H2X            35.1289711374      -11.4166179105       11.5914800670  MEMB      77              0.0000000000
      8712        77  SLPC      H2Y            34.6418026134       -9.6915907065       11.2920498106  MEMB      77              0.0000000000
      8713        77  SLPC      C23            37.8946278207      -10.6127235109       13.3427591508  MEMB      77              0.0000000000
      8714        77  SLPC      H3R            37.3347530400       -9.7929433040       13.8415794237  MEMB      77              0.0000000000
      8715        77  SLPC      H3S            37.1470137718      -11.2165211357       12.7852443894  MEMB      77              0.0000000000
      8716        77  SLPC      C24            39.1067373734      -10.2730865900       12.5403108362  MEMB      77              0.0000000000
      8717        77  SLPC      H4R            39.6244319430      -11.2014253009       12.2170445023  MEMB      77              0.0000000000
      8718        77  SLPC      H4S            39.8785682114       -9.7118212254       13.1091511747  MEMB      77              0.0000000000
      8719        77  SLPC      C25            38.9592228534       -9.4063257516       11.3288012409  MEMB      77              0.0000000000
      8720        77  SLPC      H5R            39.9172880129       -9.4540334777       10.7683047239  MEMB      77              0.0000000000
      8721        77  SLPC      H5S            38.8743055272       -8.3503370731       11.6634626471  MEMB      77              0.0000000000
      8722        77  SLPC      C26            37.9826939422       -9.8043453898       10.2625571614  MEMB      77              0.0000000000
      8723        77  SLPC      H6R            37.7919260718       -8.9052436235        9.6384223312  MEMB      77              0.0000000000
      8724        77  SLPC      H6S            37.0215244230      -10.1849618070       10.6695030318  MEMB      77              0.0000000000
      8725        77  SLPC      C27            38.4361781756      -10.9332107031        9.3155053686  MEMB      77              0.0000000000
      8726        77  SLPC      H7R            38.6734747395      -11.8839542181        9.8390494369  MEMB      77              0.0000000000
      8727        77  SLPC      H7S            39.3927805979      -10.6903460880        8.8053596489  MEMB      77              0.0000000000
      8728        77  SLPC      C28            37.3467243817      -11.2168499482        8.2820446755  MEMB      77              0.0000000000
      8729        77  SLPC      H8R            37.0504876656      -10.3592481746        7.6408861463  MEMB      77              0.0000000000
      8730        77  SLPC      H8S            36.4271703195      -11.6438215780        8.7363973789  MEMB      77              0.0000000000
      8731        77  SLPC      C29            37.8499449854      -12.2803899188        7.3399516663  MEMB      77              0.0000000000
      8732        77  SLPC      H9R            38.4598006542      -13.0568766999        7.8248677502  MEMB      77              0.0000000000
      8733        77  SLPC      C210           38.0239773853      -12.3232189448        6.0256967424  MEMB      77              0.0000000000
      8734        77  SLPC      H10R           38.5382564761      -13.1351701680        5.4906711006  MEMB      77              0.0000000000
      8735        77  SLPC      C211           37.6676823803      -11.1773516245        5.0737995083  MEMB      77              0.0000000000
      8736        77  SLPC      H11R           38.4588410288      -10.4018632534        5.1575039302  MEMB      77              0.0000000000
      8737        77  SLPC      H11S           36.7069538892      -10.6600157351        5.2828104093  MEMB      77              0.0000000000
      8738        77  SLPC      C212           37.7123374562      -11.6088584739        3.6689419842  MEMB      77              0.0000000000
      8739        77  SLPC      H12R           38.7760132656      -11.7642426241        3.4355972086  MEMB      77              0.0000000000
      8740        77  SLPC      C213           36.7768672933      -11.7483946517        2.7387452475  MEMB      77              0.0000000000
      8741        77  SLPC      H13R           37.0662486394      -11.9542386338        1.6976463477  MEMB      77              0.0000000000
      8742        77  SLPC      C214           35.2841211625      -11.4470641839        3.0004663524  MEMB      77              0.0000000000
      8743        77  SLPC      H14R           35.1605406712      -10.4904374746        3.5517501871  MEMB      77              0.0000000000
      8744        77  SLPC      H14S           34.8544315211      -12.2250534277        3.6671153962  MEMB      77              0.0000000000
      8745        77  SLPC      C215           34.4245078224      -11.2754978413        1.7173767165  MEMB      77              0.0000000000
      8746        77  SLPC      H15R           34.8908848668      -10.4885542447        1.0868747780  MEMB      77              0.0000000000
      8747        77  SLPC      H15S           33.3929287987      -10.9493406625        1.9699378706  MEMB      77              0.0000000000
      8748        77  SLPC      C216           34.2553923014      -12.6367485153        1.0197775100  MEMB      77              0.0000000000
      8749        77  SLPC      H16R           33.9440018876      -13.3832238482        1.7814404522  MEMB      77              0.0000000000
      8750        77  SLPC      H16S           35.1802867925      -12.9595323333        0.4956563767  MEMB      77              0.0000000000
      8751        77  SLPC      C217           33.0199202302      -12.6063986144        0.0444077662  MEMB      77              0.0000000000
      8752        77  SLPC      H17R           32.1597582923      -12.0757845081        0.5058093105  MEMB      77              0.0000000000
      8753        77  SLPC      H17S           32.6721201833      -13.6314402738       -0.2058818331  MEMB      77              0.0000000000
      8754        77  SLPC      C218           33.4210853543      -11.9523756498       -1.2586867442  MEMB      77              0.0000000000
      8755        77  SLPC      H18R           32.5024664097      -11.7913849433       -1.8624617972  MEMB      77              0.0000000000
      8756        77  SLPC      H18S           34.2012449867      -12.5435626284       -1.7842066463  MEMB      77              0.0000000000
      8757        77  SLPC      H18T           33.8850868048      -10.9630689854       -1.0579496386  MEMB      77              0.0000000000
      8758        77  SLPC      C33            33.1726265406      -11.1707368935       10.6571627025  MEMB      77              0.0000000000
      8759        77  SLPC      H3X            32.2376829751      -10.6814807596       11.0047686214  MEMB      77              0.0000000000
      8760        77  SLPC      H3Y            33.0216315324      -12.2664343438       10.5524301632  MEMB      77              0.0000000000
      8761        77  SLPC      C34            33.1897321880      -10.6173712731        9.2061873499  MEMB      77              0.0000000000
      8762        77  SLPC      H4X            34.1841173962      -10.9351592243        8.8260167158  MEMB      77              0.0000000000
      8763        77  SLPC      H4Y            33.2937006820       -9.5290094029        9.4036211369  MEMB      77              0.0000000000
      8764        77  SLPC      C35            32.0829711690      -10.9608794973        8.3854947394  MEMB      77              0.0000000000
      8765        77  SLPC      H5X            31.0951245576      -10.5451440791        8.6781456935  MEMB      77              0.0000000000
      8766        77  SLPC      H5Y            32.0174349379      -12.0285267612        8.6857540562  MEMB      77              0.0000000000
      8767        77  SLPC      C36            32.3408402933      -10.8915380467        6.8470593857  MEMB      77              0.0000000000
      8768        77  SLPC      H6X            31.7784769859      -11.7368521329        6.3959359283  MEMB      77              0.0000000000
      8769        77  SLPC      H6Y            33.3864850357      -11.2494151636        6.7336040410  MEMB      77              0.0000000000
      8770        77  SLPC      C37            31.9775190226       -9.5894678167        6.1551218638  MEMB      77              0.0000000000
      8771        77  SLPC      H7X            30.9658846270       -9.2966297030        6.5089051809  MEMB      77              0.0000000000
      8772        77  SLPC      H7Y            31.9009382706       -9.6736748587        5.0499677315  MEMB      77              0.0000000000
      8773        77  SLPC      C38            32.8873580836       -8.4525223505        6.5428848165  MEMB      77              0.0000000000
      8774        77  SLPC      H8X            32.7416750603       -8.1729929530        7.6082301837  MEMB      77              0.0000000000
      8775        77  SLPC      H8Y            32.6544182614       -7.5050334936        6.0115413199  MEMB      77              0.0000000000
      8776        77  SLPC      C39            34.3371717899       -8.7272603961        6.0525646783  MEMB      77              0.0000000000
      8777        77  SLPC      H9X            34.4516297980       -9.3580813694        5.1452139028  MEMB      77              0.0000000000
      8778        77  SLPC      H9Y            34.7556883080       -9.3478848690        6.8735337325  MEMB      77              0.0000000000
      8779        77  SLPC      C310           35.1553114578       -7.4666695263        5.7493134768  MEMB      77              0.0000000000
      8780        77  SLPC      H10X           35.1716810252       -6.7502887850        6.5983432381  MEMB      77              0.0000000000
      8781        77  SLPC      H10Y           34.5381292830       -6.8645899848        5.0486660722  MEMB      77              0.0000000000
      8782        77  SLPC      C311           36.5056926357       -7.9003981390        5.2103862519  MEMB      77              0.0000000000
      8783        77  SLPC      H11X           36.4238428851       -8.7166771960        4.4611797127  MEMB      77              0.0000000000
      8784        77  SLPC      H11Y           37.1896860236       -8.3199377846        5.9788007280  MEMB      77              0.0000000000
      8785        77  SLPC      C312           37.2875826720       -6.7011752385        4.7362558035  MEMB      77              0.0000000000
      8786        77  SLPC      H12X           38.2078251058       -7.1664819982        4.3227773466  MEMB      77              0.0000000000
      8787        77  SLPC      H12Y           37.5565343851       -6.0288842943        5.5788768178  MEMB      77              0.0000000000
      8788        77  SLPC      C313           36.5200665431       -5.7199410897        3.7403037469  MEMB      77              0.0000000000
      8789        77  SLPC      H13X           37.2307747057       -4.9274969539        3.4221104664  MEMB      77              0.0000000000
      8790        77  SLPC      H13Y           35.7549234167       -5.1832968197        4.3410447324  MEMB      77              0.0000000000
      8791        77  SLPC      C314           35.9940368650       -6.4120918461        2.4819862507  MEMB      77              0.0000000000
      8792        77  SLPC      H14X           35.5753592352       -5.6179000901        1.8275473666  MEMB      77              0.0000000000
      8793        77  SLPC      H14Y           35.1419629118       -7.1048639210        2.6503840525  MEMB      77              0.0000000000
      8794        77  SLPC      C315           37.1283507813       -7.2043820062        1.7359723770  MEMB      77              0.0000000000
      8795        77  SLPC      H15X           37.7262105747       -7.8675193954        2.3971327298  MEMB      77              0.0000000000
      8796        77  SLPC      H15Y           37.7899783514       -6.4262691593        1.2988104382  MEMB      77              0.0000000000
      8797        77  SLPC      C316           36.6540705100       -8.1612077715        0.5710206372  MEMB      77              0.0000000000
      8798        77  SLPC      H16X           36.0705579043       -7.4039382748        0.0050018502  MEMB      77              0.0000000000
      8799        77  SLPC      H16Y           35.9936428650       -8.9269446974        1.0312415816  MEMB      77              0.0000000000
      8800        77  SLPC      C317           37.8180867416       -8.7103633904       -0.2451968035  MEMB      77              0.0000000000
      8801        77  SLPC      H17X           38.4997072510       -9.2363123120        0.4570081883  MEMB      77              0.0000000000
      8802        77  SLPC      H17Y           38.5309928042       -8.0446694469       -0.7771146703  MEMB      77              0.0000000000
      8803        77  SLPC      C318           37.3149468133       -9.7177711679       -1.3022160785  MEMB      77              0.0000000000
      8804        77  SLPC      H18X           36.7558050871       -9.2532134683       -2.1423765168  MEMB      77              0.0000000000
      8805        77  SLPC      H18Y           36.7459188622      -10.4891687249       -0.7405463333  MEMB      77              0.0000000000
      8806        77  SLPC      H18Z           38.1280516572      -10.3642326042       -1.6962587213  MEMB      77              0.0000000000
      8807        78  SAPI      C12           -31.7174186824      -22.6501613765       23.9746803542  MEMB      78              0.0000000000
      8808        78  SAPI      H2            -32.1655539358      -23.4043349417       23.2929781645  MEMB      78              0.0000000000
      8809        78  SAPI      O2            -32.7432379049      -21.7033040181       24.2169412456  MEMB      78              0.0000000000
      8810        78  SAPI      HO2           -32.2812558685      -20.8790134745       24.3864040380  MEMB      78              0.0000000000
      8811        78  SAPI      C13           -31.3705898866      -23.4238076680       25.2762057313  MEMB      78              0.0000000000
      8812        78  SAPI      H3            -30.6511750598      -24.2363668979       25.0384867079  MEMB      78              0.0000000000
      8813        78  SAPI      O3            -32.5594475145      -23.8950230154       25.8952314038  MEMB      78              0.0000000000
      8814        78  SAPI      HO3           -32.2141836029      -24.4449543138       26.6023154949  MEMB      78              0.0000000000
      8815        78  SAPI      C14           -30.6828741377      -22.4498640896       26.1628806008  MEMB      78              0.0000000000
      8816        78  SAPI      H4            -31.3299201869      -21.5557320372       26.2900822952  MEMB      78              0.0000000000
      8817        78  SAPI      O4            -30.3752625024      -22.9210070618       27.3946445528  MEMB      78              0.0000000000
      8818        78  SAPI      HO4           -30.5175352239      -22.2461298116       28.0624012480  MEMB      78              0.0000000000
      8819        78  SAPI      C15           -29.3912453674      -21.8850803939       25.5381503279  MEMB      78              0.0000000000
      8820        78  SAPI      H5            -28.7707184677      -22.7517870830       25.2249623844  MEMB      78              0.0000000000
      8821        78  SAPI      O5            -28.6048262901      -21.0667876226       26.4050818106  MEMB      78              0.0000000000
      8822        78  SAPI      HO5           -28.0091296871      -21.6194063868       26.9163137128  MEMB      78              0.0000000000
      8823        78  SAPI      C16           -29.6961942185      -21.1135448925       24.2521050117  MEMB      78              0.0000000000
      8824        78  SAPI      H6            -30.3737203270      -20.2873000799       24.5564059760  MEMB      78              0.0000000000
      8825        78  SAPI      O6            -28.3974985414      -20.6966227813       23.7034244734  MEMB      78              0.0000000000
      8826        78  SAPI      HO6           -27.7637737432      -21.3820104663       23.9275592618  MEMB      78              0.0000000000
      8827        78  SAPI      C11           -30.4654556325      -22.0302624851       23.3800825397  MEMB      78              0.0000000000
      8828        78  SAPI      H1            -29.8040169421      -22.8905263934       23.1418270022  MEMB      78              0.0000000000
      8829        78  SAPI      P             -31.1037984586      -21.9831461156       20.7428359593  MEMB      78              0.0000000000
      8830        78  SAPI      O13           -32.4010439625      -22.7072337948       20.7015933415  MEMB      78              0.0000000000
      8831        78  SAPI      O14           -29.8702105588      -22.7662849373       20.3243437933  MEMB      78              0.0000000000
      8832        78  SAPI      O12           -30.7000279336      -21.2917726523       22.2108009128  MEMB      78              0.0000000000
      8833        78  SAPI      O11           -31.2227202182      -20.7529807926       19.7251087665  MEMB      78              0.0000000000
      8834        78  SAPI      C1            -30.3407870697      -19.7589007273       19.7059163423  MEMB      78              0.0000000000
      8835        78  SAPI      HA            -30.9768742589      -18.8710427078       19.9094402365  MEMB      78              0.0000000000
      8836        78  SAPI      HB            -29.5112915536      -19.8068778830       20.4434503819  MEMB      78              0.0000000000
      8837        78  SAPI      C2            -29.6809106718      -19.4243247620       18.3238519342  MEMB      78              0.0000000000
      8838        78  SAPI      HS            -29.5721166597      -18.3279088084       18.1811738832  MEMB      78              0.0000000000
      8839        78  SAPI      O21           -30.4042234843      -20.1387406366       17.2718747823  MEMB      78              0.0000000000
      8840        78  SAPI      C21           -31.5660218882      -19.5165893623       16.8966162591  MEMB      78              0.0000000000
      8841        78  SAPI      O22           -31.9901507423      -18.4858079625       17.3606243159  MEMB      78              0.0000000000
      8842        78  SAPI      C22           -32.1649522468      -20.2362594268       15.6642694686  MEMB      78              0.0000000000
      8843        78  SAPI      H2R           -31.7363082223      -21.2355050988       15.4360300551  MEMB      78              0.0000000000
      8844        78  SAPI      H2S           -33.2133397407      -20.4969531658       15.9235828326  MEMB      78              0.0000000000
      8845        78  SAPI      C3            -28.1609536975      -19.8718519463       18.2655489506  MEMB      78              0.0000000000
      8846        78  SAPI      HX            -27.5875146307      -19.5933500239       19.1754528907  MEMB      78              0.0000000000
      8847        78  SAPI      HY            -27.6650619523      -19.4129465964       17.3836087341  MEMB      78              0.0000000000
      8848        78  SAPI      O31           -28.0526668406      -21.2967824230       18.1700222614  MEMB      78              0.0000000000
      8849        78  SAPI      C31           -28.0823683927      -21.7889373782       16.9797966430  MEMB      78              0.0000000000
      8850        78  SAPI      O32           -28.2036642536      -21.2152153335       15.9340300444  MEMB      78              0.0000000000
      8851        78  SAPI      C32           -28.0473747660      -23.2980595454       17.0692835825  MEMB      78              0.0000000000
      8852        78  SAPI      H2X           -28.9564358448      -23.5821532415       17.6413147268  MEMB      78              0.0000000000
      8853        78  SAPI      H2Y           -27.1808459034      -23.5918264919       17.6994819504  MEMB      78              0.0000000000
      8854        78  SAPI      C23           -32.1465235033      -19.3121929323       14.4011126110  MEMB      78              0.0000000000
      8855        78  SAPI      H3R           -32.7842343122      -18.4425203931       14.6681627696  MEMB      78              0.0000000000
      8856        78  SAPI      H3S           -32.5363613415      -19.8552380572       13.5137294000  MEMB      78              0.0000000000
      8857        78  SAPI      C24           -30.8116141357      -18.7501303332       13.8869613228  MEMB      78              0.0000000000
      8858        78  SAPI      H4R           -30.3565928672      -18.1203660589       14.6811113058  MEMB      78              0.0000000000
      8859        78  SAPI      H4S           -31.1618162484      -17.9880982419       13.1582736256  MEMB      78              0.0000000000
      8860        78  SAPI      C25           -29.7689520810      -19.6633208481       13.2326846810  MEMB      78              0.0000000000
      8861        78  SAPI      H5R           -29.1224663117      -20.2112464291       13.9339932269  MEMB      78              0.0000000000
      8862        78  SAPI      C26           -29.5988135712      -19.8920335529       11.9176834857  MEMB      78              0.0000000000
      8863        78  SAPI      H6R           -28.8433667611      -20.5083947657       11.4083709218  MEMB      78              0.0000000000
      8864        78  SAPI      C27           -30.3356305492      -19.3442180409       10.7223836321  MEMB      78              0.0000000000
      8865        78  SAPI      H7R           -29.6621036755      -18.8518269709        9.9887396798  MEMB      78              0.0000000000
      8866        78  SAPI      H7S           -31.0655399770      -18.6212899103       11.1453825898  MEMB      78              0.0000000000
      8867        78  SAPI      C28           -31.1204470460      -20.4282962196       10.0002237486  MEMB      78              0.0000000000
      8868        78  SAPI      H8R           -31.9516846734      -20.8438829511       10.5887232078  MEMB      78              0.0000000000
      8869        78  SAPI      C29           -30.8906437748      -20.8676918505        8.7530784780  MEMB      78              0.0000000000
      8870        78  SAPI      H9R           -31.5932490210      -21.6183815459        8.3621683036  MEMB      78              0.0000000000
      8871        78  SAPI      C210          -29.8763532017      -20.5195128160        7.7248078138  MEMB      78              0.0000000000
      8872        78  SAPI      H10R          -29.5842581192      -21.3939896393        7.1048955215  MEMB      78              0.0000000000
      8873        78  SAPI      H10S          -28.9657861686      -20.1926230405        8.2710062274  MEMB      78              0.0000000000
      8874        78  SAPI      C211          -30.5086057515      -19.3248090672        6.9896442302  MEMB      78              0.0000000000
      8875        78  SAPI      H11R          -30.5250634412      -18.3321620491        7.4633332448  MEMB      78              0.0000000000
      8876        78  SAPI      C212          -31.1094652254      -19.4018344682        5.7738439329  MEMB      78              0.0000000000
      8877        78  SAPI      H12R          -31.5473222754      -18.5688409303        5.2042805070  MEMB      78              0.0000000000
      8878        78  SAPI      C213          -31.1815077354      -20.7104874714        4.9268486264  MEMB      78              0.0000000000
      8879        78  SAPI      H13R          -32.0837671187      -20.7422248146        4.2793592120  MEMB      78              0.0000000000
      8880        78  SAPI      H13S          -31.2056675368      -21.6021541927        5.5891682087  MEMB      78              0.0000000000
      8881        78  SAPI      C214          -30.0859085254      -20.9749231950        4.0034246675  MEMB      78              0.0000000000
      8882        78  SAPI      H14R          -29.1966821253      -21.4148511568        4.4785456374  MEMB      78              0.0000000000
      8883        78  SAPI      C215          -30.1468628499      -20.8322471047        2.6524338866  MEMB      78              0.0000000000
      8884        78  SAPI      H15R          -29.2260846005      -21.1070149160        2.1170182799  MEMB      78              0.0000000000
      8885        78  SAPI      C216          -31.2262719353      -20.3139219039        1.7643047851  MEMB      78              0.0000000000
      8886        78  SAPI      H16R          -30.7465657780      -20.2112269410        0.7674805449  MEMB      78              0.0000000000
      8887        78  SAPI      H16S          -31.5753128015      -19.2897035636        2.0162330354  MEMB      78              0.0000000000
      8888        78  SAPI      C217          -32.4484360751      -21.2112857900        1.6158715886  MEMB      78              0.0000000000
      8889        78  SAPI      H17R          -32.9192225602      -21.1352807875        2.6193195030  MEMB      78              0.0000000000
      8890        78  SAPI      H17S          -32.0892973580      -22.2502610008        1.4550295574  MEMB      78              0.0000000000
      8891        78  SAPI      C218          -33.3413216294      -20.8083501032        0.4509236592  MEMB      78              0.0000000000
      8892        78  SAPI      H18R          -32.6663083536      -20.7402454171       -0.4288727865  MEMB      78              0.0000000000
      8893        78  SAPI      H18S          -33.7493447581      -19.7957859831        0.6572035570  MEMB      78              0.0000000000
      8894        78  SAPI      C219          -34.4421025331      -21.7568250792        0.0266805391  MEMB      78              0.0000000000
      8895        78  SAPI      H19R          -34.6978432086      -21.5265308782       -1.0296723681  MEMB      78              0.0000000000
      8896        78  SAPI      H19S          -35.4577876512      -21.5759234288        0.4389663876  MEMB      78              0.0000000000
      8897        78  SAPI      C220          -34.2467392185      -23.2509013083        0.2154464170  MEMB      78              0.0000000000
      8898        78  SAPI      H20R          -34.2210225108      -23.5840137564        1.2750205067  MEMB      78              0.0000000000
      8899        78  SAPI      H20S          -33.2720408030      -23.5695542501       -0.2120401261  MEMB      78              0.0000000000
      8900        78  SAPI      H20T          -35.1611846269      -23.7444617511       -0.1776289636  MEMB      78              0.0000000000
      8901        78  SAPI      C33           -28.0173127979      -24.0233858466       15.6510382727  MEMB      78              0.0000000000
      8902        78  SAPI      H3X           -27.7368618522      -25.0758732495       15.8699863640  MEMB      78              0.0000000000
      8903        78  SAPI      H3Y           -27.2530809037      -23.5309132773       15.0124923262  MEMB      78              0.0000000000
      8904        78  SAPI      C34           -29.3200055314      -23.9645370927       14.8248484803  MEMB      78              0.0000000000
      8905        78  SAPI      H4X           -29.4127622521      -22.8790791700       14.6069073769  MEMB      78              0.0000000000
      8906        78  SAPI      H4Y           -30.1674340749      -24.3180164208       15.4503388263  MEMB      78              0.0000000000
      8907        78  SAPI      C35           -29.3059863706      -24.7668832184       13.5259988747  MEMB      78              0.0000000000
      8908        78  SAPI      H5X           -30.3050396794      -24.7567692164       13.0400861089  MEMB      78              0.0000000000
      8909        78  SAPI      H5Y           -28.9182915880      -25.7970444035       13.6769364652  MEMB      78              0.0000000000
      8910        78  SAPI      C36           -28.3571000658      -24.0351866325       12.4838765145  MEMB      78              0.0000000000
      8911        78  SAPI      H6X           -27.3054086396      -23.9722007116       12.8364373985  MEMB      78              0.0000000000
      8912        78  SAPI      H6Y           -28.6157278104      -22.9660923763       12.3274473965  MEMB      78              0.0000000000
      8913        78  SAPI      C37           -28.4368095880      -24.7254106456       11.1338069414  MEMB      78              0.0000000000
      8914        78  SAPI      H7X           -29.5109813043      -24.7065644402       10.8507511058  MEMB      78              0.0000000000
      8915        78  SAPI      H7Y           -28.1142479691      -25.7855202457       11.2140737911  MEMB      78              0.0000000000
      8916        78  SAPI      C38           -27.6234495786      -24.0415683878       10.1061785095  MEMB      78              0.0000000000
      8917        78  SAPI      H8X           -26.6072386852      -24.1198685848       10.5483389366  MEMB      78              0.0000000000
      8918        78  SAPI      H8Y           -27.9418186795      -22.9941285076        9.9168850754  MEMB      78              0.0000000000
      8919        78  SAPI      C39           -27.5493461374      -24.7953418229        8.7808468392  MEMB      78              0.0000000000
      8920        78  SAPI      H9X           -27.9378329187      -25.8153939927        8.9879512047  MEMB      78              0.0000000000
      8921        78  SAPI      H9Y           -26.5179085928      -24.8353565203        8.3699248508  MEMB      78              0.0000000000
      8922        78  SAPI      C310          -28.4673791396      -24.0535658542        7.7892840848  MEMB      78              0.0000000000
      8923        78  SAPI      H10X          -27.9380952931      -23.1089451950        7.5405448005  MEMB      78              0.0000000000
      8924        78  SAPI      H10Y          -29.4935056375      -23.8347977481        8.1546958090  MEMB      78              0.0000000000
      8925        78  SAPI      C311          -28.6405317105      -24.9041498350        6.4911317552  MEMB      78              0.0000000000
      8926        78  SAPI      H11X          -28.8444021108      -25.9489323564        6.8092315957  MEMB      78              0.0000000000
      8927        78  SAPI      H11Y          -27.6829033683      -24.9219037974        5.9281453275  MEMB      78              0.0000000000
      8928        78  SAPI      C312          -29.7112751432      -24.3423163254        5.5185666255  MEMB      78              0.0000000000
      8929        78  SAPI      H12X          -29.7615656623      -23.2333775502        5.4733255807  MEMB      78              0.0000000000
      8930        78  SAPI      H12Y          -30.7105330130      -24.5551651089        5.9550298332  MEMB      78              0.0000000000
      8931        78  SAPI      C313          -29.5833367167      -24.8923199679        4.0972045721  MEMB      78              0.0000000000
      8932        78  SAPI      H13X          -29.3935986537      -25.9869622474        4.0883367995  MEMB      78              0.0000000000
      8933        78  SAPI      H13Y          -28.6405830323      -24.5415692546        3.6254948639  MEMB      78              0.0000000000
      8934        78  SAPI      C314          -30.7390413263      -24.5285351941        3.1765357942  MEMB      78              0.0000000000
      8935        78  SAPI      H14X          -31.0425039465      -23.4598538691        3.1642202932  MEMB      78              0.0000000000
      8936        78  SAPI      H14Y          -31.6215167597      -24.9635203520        3.6926223128  MEMB      78              0.0000000000
      8937        78  SAPI      C315          -30.6278817803      -24.9492997923        1.6398621844  MEMB      78              0.0000000000
      8938        78  SAPI      H15X          -31.5223582162      -24.6233155341        1.0671786724  MEMB      78              0.0000000000
      8939        78  SAPI      H15Y          -30.5987730147      -26.0599184453        1.6402195018  MEMB      78              0.0000000000
      8940        78  SAPI      C316          -29.3930568326      -24.4213326714        1.0161946084  MEMB      78              0.0000000000
      8941        78  SAPI      H16X          -28.4771781698      -24.7075541793        1.5761636716  MEMB      78              0.0000000000
      8942        78  SAPI      H16Y          -29.5529193639      -23.3452648287        1.2416781080  MEMB      78              0.0000000000
      8943        78  SAPI      C317          -29.2709228492      -24.5782174555       -0.4993195970  MEMB      78              0.0000000000
      8944        78  SAPI      H17X          -30.2226390506      -24.5447063793       -1.0715366190  MEMB      78              0.0000000000
      8945        78  SAPI      H17Y          -28.7874193108      -25.5634603544       -0.6720647880  MEMB      78              0.0000000000
      8946        78  SAPI      C318          -28.2273181977      -23.5816915325       -1.0116541652  MEMB      78              0.0000000000
      8947        78  SAPI      H18X          -28.0879142766      -23.3800861723       -2.0952789508  MEMB      78              0.0000000000
      8948        78  SAPI      H18Y          -27.2819632562      -23.7487747015       -0.4524522293  MEMB      78              0.0000000000
      8949        78  SAPI      H18Z          -28.5395706950      -22.5472472366       -0.7533046932  MEMB      78              0.0000000000
      8950        79  OSM       N              22.1950738631      -32.7366617876       22.7560040955  MEMB      79              0.0000000000
      8951        79  OSM       C15            23.6035026382      -33.0221233585       23.1820681875  MEMB      79              0.0000000000
      8952        79  OSM       H15A           24.2409160380      -32.2860516487       22.7148394429  MEMB      79              0.0000000000
      8953        79  OSM       H15B           23.9668339154      -33.9972676964       22.8931323346  MEMB      79              0.0000000000
      8954        79  OSM       H15C           23.6541591626      -33.0010846528       24.2606743794  MEMB      79              0.0000000000
      8955        79  OSM       C14            21.2616109951      -33.6930531915       23.4148015698  MEMB      79              0.0000000000
      8956        79  OSM       H14A           20.2403743530      -33.5897639121       23.0789338820  MEMB      79              0.0000000000
      8957        79  OSM       H14B           21.3733921784      -33.5932187321       24.4843519104  MEMB      79              0.0000000000
      8958        79  OSM       H14C           21.6123025847      -34.7045638909       23.2724589273  MEMB      79              0.0000000000
      8959        79  OSM       C13            21.9147025370      -31.3725329001       23.3069596821  MEMB      79              0.0000000000
      8960        79  OSM       H13A           21.8648247093      -31.3609629896       24.3857453849  MEMB      79              0.0000000000
      8961        79  OSM       H13B           20.9694018916      -31.0400927627       22.9041072221  MEMB      79              0.0000000000
      8962        79  OSM       H13C           22.6635396451      -30.7406948907       22.8526208464  MEMB      79              0.0000000000
      8963        79  OSM       C12            22.0084529159      -32.9888107244       21.2751738981  MEMB      79              0.0000000000
      8964        79  OSM       H12A           20.9406948153      -33.0696170646       21.1345931114  MEMB      79              0.0000000000
      8965        79  OSM       H12B           22.5832967274      -33.8964969242       21.1653539046  MEMB      79              0.0000000000
      8966        79  OSM       C11            22.7089544189      -32.0234759327       20.2763686843  MEMB      79              0.0000000000
      8967        79  OSM       H11A           22.6133872463      -32.5494766556       19.3024532584  MEMB      79              0.0000000000
      8968        79  OSM       H11B           23.7594153204      -31.8151888841       20.5721207303  MEMB      79              0.0000000000
      8969        79  OSM       P              20.9290795406      -30.3397364319       19.4033578054  MEMB      79              0.0000000000
      8970        79  OSM       O13            19.9497731226      -31.4612489796       19.4961912031  MEMB      79              0.0000000000
      8971        79  OSM       O14            20.4812198993      -28.9581101694       19.6600759810  MEMB      79              0.0000000000
      8972        79  OSM       O11            21.6615352277      -30.3217206594       17.9504880408  MEMB      79              0.0000000000
      8973        79  OSM       O12            22.1172995439      -30.7321589631       20.2785108528  MEMB      79              0.0000000000
      8974        79  OSM       C1S            22.5402757060      -29.1770947246       17.7072165610  MEMB      79              0.0000000000
      8975        79  OSM       H1S            23.4244979087      -29.3432815272       18.3590249283  MEMB      79              0.0000000000
      8976        79  OSM       H1T            22.1613997237      -28.1582043903       17.9366434820  MEMB      79              0.0000000000
      8977        79  OSM       NF             24.3499970384      -28.8444098242       16.0176888042  MEMB      79              0.0000000000
      8978        79  OSM       HNF            24.5194229720      -27.9010243911       15.7432289808  MEMB      79              0.0000000000
      8979        79  OSM       C2S            22.9516514107      -29.1946919952       16.1844531073  MEMB      79              0.0000000000
      8980        79  OSM       H2S            22.7232263167      -30.1307449212       15.6313276485  MEMB      79              0.0000000000
      8981        79  OSM       C3S            22.0063187700      -28.2054564876       15.5189962471  MEMB      79              0.0000000000
      8982        79  OSM       H3S            22.1312231667      -27.1534330278       15.8536100607  MEMB      79              0.0000000000
      8983        79  OSM       O3             20.6782821863      -28.6530566588       15.6952176348  MEMB      79              0.0000000000
      8984        79  OSM       HO3            20.8606491858      -29.4974115722       16.1140339193  MEMB      79              0.0000000000
      8985        79  OSM       C4S            22.3413043676      -28.1921367367       14.0250035905  MEMB      79              0.0000000000
      8986        79  OSM       H4S            22.5013266578      -29.2198935788       13.6670807011  MEMB      79              0.0000000000
      8987        79  OSM       C5S            22.7609297673      -27.1756629985       13.2928494019  MEMB      79              0.0000000000
      8988        79  OSM       H5S            22.8578727151      -26.2107742485       13.8120719663  MEMB      79              0.0000000000
      8989        79  OSM       C6S            23.1331818759      -27.2636103588       11.8290101601  MEMB      79              0.0000000000
      8990        79  OSM       H6S            23.5134815755      -28.3024657645       11.7266749636  MEMB      79              0.0000000000
      8991        79  OSM       H6T            23.9747970055      -26.6453170127       11.4499071612  MEMB      79              0.0000000000
      8992        79  OSM       C7S            21.8757421062      -26.8535849442       11.0220532346  MEMB      79              0.0000000000
      8993        79  OSM       H7S            21.6616183839      -25.7635169209       11.0070881097  MEMB      79              0.0000000000
      8994        79  OSM       H7T            20.9243544468      -27.3281911288       11.3444370434  MEMB      79              0.0000000000
      8995        79  OSM       C8S            21.8592048346      -27.3065259937        9.4983868423  MEMB      79              0.0000000000
      8996        79  OSM       H8S            22.8625519041      -27.2899591654        9.0215827987  MEMB      79              0.0000000000
      8997        79  OSM       H8T            21.2150586525      -26.5546228091        8.9943644149  MEMB      79              0.0000000000
      8998        79  OSM       C9S            21.2152516918      -28.7113093434        9.3222466930  MEMB      79              0.0000000000
      8999        79  OSM       H9S            20.1164612820      -28.6579287142        9.4775898218  MEMB      79              0.0000000000
      9000        79  OSM       H9T            21.4891622140      -29.4148288941       10.1373261413  MEMB      79              0.0000000000
      9001        79  OSM       C10S           21.4555002705      -29.5005248651        8.0136643427  MEMB      79              0.0000000000
      9002        79  OSM       H10S           22.4709538780      -29.9402505437        7.9145869361  MEMB      79              0.0000000000
      9003        79  OSM       H10T           21.4296076330      -28.7478732057        7.1968627764  MEMB      79              0.0000000000
      9004        79  OSM       C11S           20.4543003437      -30.6740328324        7.8492105395  MEMB      79              0.0000000000
      9005        79  OSM       H11S           19.4180872078      -30.3161699850        8.0295371448  MEMB      79              0.0000000000
      9006        79  OSM       H11T           20.7186622996      -31.4379268805        8.6113780362  MEMB      79              0.0000000000
      9007        79  OSM       C12S           20.4934546800      -31.3639569432        6.4861156951  MEMB      79              0.0000000000
      9008        79  OSM       H12S           21.5375816241      -31.6851684408        6.2837703109  MEMB      79              0.0000000000
      9009        79  OSM       H12T           20.1425972351      -30.6132348078        5.7460907290  MEMB      79              0.0000000000
      9010        79  OSM       C13S           19.6768101657      -32.6682285624        6.3538140270  MEMB      79              0.0000000000
      9011        79  OSM       H13S           18.5808589568      -32.5322247378        6.4751165845  MEMB      79              0.0000000000
      9012        79  OSM       H13T           20.0960111616      -33.2901026177        7.1734871312  MEMB      79              0.0000000000
      9013        79  OSM       C14S           19.8216874428      -33.4341726307        4.9731351742  MEMB      79              0.0000000000
      9014        79  OSM       H14S           19.4258067774      -34.4688817799        4.8896080152  MEMB      79              0.0000000000
      9015        79  OSM       H14T           20.9205128946      -33.5724048695        4.8848415904  MEMB      79              0.0000000000
      9016        79  OSM       C15S           19.4264325846      -32.7153963148        3.6735216796  MEMB      79              0.0000000000
      9017        79  OSM       H15S           18.6048946929      -32.0103216819        3.9230551417  MEMB      79              0.0000000000
      9018        79  OSM       H15T           19.0181138884      -33.5369509637        3.0469081806  MEMB      79              0.0000000000
      9019        79  OSM       C16S           20.6835505619      -32.0186769527        3.0561380707  MEMB      79              0.0000000000
      9020        79  OSM       H16S           21.4629225619      -32.7900616822        2.8776268631  MEMB      79              0.0000000000
      9021        79  OSM       H16T           21.0410477177      -31.2543359666        3.7788408340  MEMB      79              0.0000000000
      9022        79  OSM       C17S           20.4513091939      -31.4227129226        1.6821697631  MEMB      79              0.0000000000
      9023        79  OSM       H17S           20.1916477404      -32.2781504304        1.0225319382  MEMB      79              0.0000000000
      9024        79  OSM       H17T           21.4325995186      -31.1385968241        1.2455151683  MEMB      79              0.0000000000
      9025        79  OSM       C18S           19.4624295090      -30.2795717561        1.4461218336  MEMB      79              0.0000000000
      9026        79  OSM       H18S           19.4156785042      -30.0304412593        0.3644248596  MEMB      79              0.0000000000
      9027        79  OSM       H18T           19.8515927033      -29.4930350042        2.1274682509  MEMB      79              0.0000000000
      9028        79  OSM       H18U           18.4655495580      -30.5437921515        1.8593263271  MEMB      79              0.0000000000
      9029        79  OSM       C1F            25.4035671384      -29.6811762319       16.2468563820  MEMB      79              0.0000000000
      9030        79  OSM       OF             25.2644302980      -30.7473053682       16.7945383709  MEMB      79              0.0000000000
      9031        79  OSM       C2F            26.8019381598      -29.1876674117       15.9189007436  MEMB      79              0.0000000000
      9032        79  OSM       H2F            27.5372788969      -29.3751933985       16.7303373140  MEMB      79              0.0000000000
      9033        79  OSM       H2G            26.6658306489      -28.0883641741       16.0045070676  MEMB      79              0.0000000000
      9034        79  OSM       C3F            27.3187180699      -29.5670101284       14.5107651922  MEMB      79              0.0000000000
      9035        79  OSM       H3F            27.6033399293      -30.6399641947       14.5563861596  MEMB      79              0.0000000000
      9036        79  OSM       H3G            28.2245305377      -28.9834893926       14.2399722509  MEMB      79              0.0000000000
      9037        79  OSM       C4F            26.4063217974      -29.4039977260       13.2481548004  MEMB      79              0.0000000000
      9038        79  OSM       H4F            26.0243993884      -28.3621926578       13.3038206946  MEMB      79              0.0000000000
      9039        79  OSM       H4G            25.5446618296      -30.1024437743       13.3116842718  MEMB      79              0.0000000000
      9040        79  OSM       C5F            27.0021500520      -29.6776625654       11.8825472340  MEMB      79              0.0000000000
      9041        79  OSM       H5F            27.5142239784      -30.6513941055       11.7277970906  MEMB      79              0.0000000000
      9042        79  OSM       H5G            27.8766380281      -29.0759861407       11.5545585568  MEMB      79              0.0000000000
      9043        79  OSM       C6F            25.8589064071      -29.6475576426       10.8079015225  MEMB      79              0.0000000000
      9044        79  OSM       H6F            25.2777740315      -28.7015955091       10.8498754381  MEMB      79              0.0000000000
      9045        79  OSM       H6G            25.0997069844      -30.3598919514       11.1958667818  MEMB      79              0.0000000000
      9046        79  OSM       C7F            26.3839853623      -29.9905616739        9.3992165290  MEMB      79              0.0000000000
      9047        79  OSM       H7F            27.2221863798      -29.2794179029        9.2379279422  MEMB      79              0.0000000000
      9048        79  OSM       H7G            25.6959872416      -29.6152986947        8.6117163205  MEMB      79              0.0000000000
      9049        79  OSM       C8F            26.9430198059      -31.3441702510        9.1574373222  MEMB      79              0.0000000000
      9050        79  OSM       H8F            27.5832326395      -31.6467669383       10.0135235417  MEMB      79              0.0000000000
      9051        79  OSM       H8G            27.6792213466      -31.2143352270        8.3355670651  MEMB      79              0.0000000000
      9052        79  OSM       C9F            25.9288733586      -32.4657346231        8.9310890324  MEMB      79              0.0000000000
      9053        79  OSM       H9F            25.2050059286      -32.7336660328        9.7148172559  MEMB      79              0.0000000000
      9054        79  OSM       C10F           25.8933287493      -33.2261228483        7.8394484793  MEMB      79              0.0000000000
      9055        79  OSM       H10F           25.1598594523      -34.0447164370        7.8833506624  MEMB      79              0.0000000000
      9056        79  OSM       C11F           26.7829208151      -33.0616342860        6.6779629932  MEMB      79              0.0000000000
      9057        79  OSM       H11F           26.5507157326      -33.8624912708        5.9437760963  MEMB      79              0.0000000000
      9058        79  OSM       H11G           27.8534493067      -33.1406926727        6.9643882305  MEMB      79              0.0000000000
      9059        79  OSM       C12F           26.6313719593      -31.7778893554        5.8563809212  MEMB      79              0.0000000000
      9060        79  OSM       H12F           27.4201955099      -31.8124400585        5.0747893957  MEMB      79              0.0000000000
      9061        79  OSM       H12G           26.7236757820      -30.8204826580        6.4124146375  MEMB      79              0.0000000000
      9062        79  OSM       C13F           25.2428980548      -31.7766773277        5.1175574246  MEMB      79              0.0000000000
      9063        79  OSM       H13F           24.5124076821      -32.5089975427        5.5230345235  MEMB      79              0.0000000000
      9064        79  OSM       H13G           25.4907507784      -32.0026997635        4.0584041538  MEMB      79              0.0000000000
      9065        79  OSM       C14F           24.4275430895      -30.4278740501        5.1508852543  MEMB      79              0.0000000000
      9066        79  OSM       H14F           23.7758477056      -30.3898157219        6.0498654201  MEMB      79              0.0000000000
      9067        79  OSM       H14G           23.7021870041      -30.5088250136        4.3132529301  MEMB      79              0.0000000000
      9068        79  OSM       C15F           25.1167328448      -29.0781154491        4.8687703162  MEMB      79              0.0000000000
      9069        79  OSM       H15F           25.4383843314      -29.0299236530        3.8064436559  MEMB      79              0.0000000000
      9070        79  OSM       H15G           25.9740007510      -28.8886003379        5.5495764052  MEMB      79              0.0000000000
      9071        79  OSM       C16F           24.1703628213      -27.9004983022        5.1300857483  MEMB      79              0.0000000000
      9072        79  OSM       H16F           24.7088569853      -26.9479902425        4.9375397445  MEMB      79              0.0000000000
      9073        79  OSM       H16G           23.8293075549      -27.8886491250        6.1873758844  MEMB      79              0.0000000000
      9074        79  OSM       C17F           22.9676373575      -27.8449151713        4.1476733293  MEMB      79              0.0000000000
      9075        79  OSM       H17F           22.2726448666      -27.0583138486        4.5117688629  MEMB      79              0.0000000000
      9076        79  OSM       H17G           22.4189152445      -28.8087663763        4.2126076165  MEMB      79              0.0000000000
      9077        79  OSM       C18F           23.2617666616      -27.5542920566        2.7114047249  MEMB      79              0.0000000000
      9078        79  OSM       H18F           23.4734058186      -26.4654691903        2.7746058987  MEMB      79              0.0000000000
      9079        79  OSM       H18G           22.3701975735      -27.5729834221        2.0487752081  MEMB      79              0.0000000000
      9080        79  OSM       H18H           24.0125021984      -28.2404734096        2.2643337593  MEMB      79              0.0000000000
      9081        80  SAPE      N              18.0757058160      -36.5323047627       20.2323324480  MEMB      80              0.0000000000
      9082        80  SAPE      HN1            18.9528806659      -36.0409107328       20.4982201082  MEMB      80              0.0000000000
      9083        80  SAPE      HN2            17.5622738300      -36.6378613022       21.1305780984  MEMB      80              0.0000000000
      9084        80  SAPE      HN3            18.2144449931      -37.4890072259       19.8488330923  MEMB      80              0.0000000000
      9085        80  SAPE      C12            17.2521706991      -35.8389711560       19.1758752182  MEMB      80              0.0000000000
      9086        80  SAPE      H12A           17.7232829506      -35.8387257881       18.1697071297  MEMB      80              0.0000000000
      9087        80  SAPE      H12B           17.2830313552      -34.7583230771       19.4319384027  MEMB      80              0.0000000000
      9088        80  SAPE      C11            15.7550337819      -36.3482467606       19.1188428740  MEMB      80              0.0000000000
      9089        80  SAPE      H11A           15.8470988232      -37.4552880851       19.1362891053  MEMB      80              0.0000000000
      9090        80  SAPE      H11B           15.2540239018      -35.9752489367       18.2000486006  MEMB      80              0.0000000000
      9091        80  SAPE      P              13.8973425228      -34.9607908066       20.3483010656  MEMB      80              0.0000000000
      9092        80  SAPE      O13            13.2051041308      -35.0851078046       21.6239925126  MEMB      80              0.0000000000
      9093        80  SAPE      O14            14.3862503021      -33.5679119153       20.0033519149  MEMB      80              0.0000000000
      9094        80  SAPE      O12            15.0784774918      -35.9971596554       20.2706611159  MEMB      80              0.0000000000
      9095        80  SAPE      O11            12.7700568603      -35.4261783330       19.2266428494  MEMB      80              0.0000000000
      9096        80  SAPE      C1             12.0351851339      -36.7026452741       19.3589736114  MEMB      80              0.0000000000
      9097        80  SAPE      HA             12.6568402513      -37.4667238143       19.8728314068  MEMB      80              0.0000000000
      9098        80  SAPE      HB             11.1776100151      -36.5153321101       20.0400021174  MEMB      80              0.0000000000
      9099        80  SAPE      C2             11.4223418373      -37.3007721277       18.1145207860  MEMB      80              0.0000000000
      9100        80  SAPE      HS             10.8781611268      -38.2121917586       18.4423968995  MEMB      80              0.0000000000
      9101        80  SAPE      O21            12.5127051169      -37.7077011434       17.2695947199  MEMB      80              0.0000000000
      9102        80  SAPE      C21            12.2387308730      -38.5471647815       16.2126396258  MEMB      80              0.0000000000
      9103        80  SAPE      O22            11.2912023660      -39.2581474405       15.9751029844  MEMB      80              0.0000000000
      9104        80  SAPE      C22            13.4946044895      -38.4838386873       15.3719024836  MEMB      80              0.0000000000
      9105        80  SAPE      H2R            13.7519903479      -37.4410519550       15.0878790009  MEMB      80              0.0000000000
      9106        80  SAPE      H2S            14.2560750320      -38.8290217077       16.1035663408  MEMB      80              0.0000000000
      9107        80  SAPE      C3             10.4636833692      -36.3368283302       17.4389615626  MEMB      80              0.0000000000
      9108        80  SAPE      HX              9.5292644755      -36.1304688071       18.0034064583  MEMB      80              0.0000000000
      9109        80  SAPE      HY             10.0631805847      -36.8817572446       16.5575022799  MEMB      80              0.0000000000
      9110        80  SAPE      O31            11.1411519630      -35.1798351055       17.1057972970  MEMB      80              0.0000000000
      9111        80  SAPE      C31            11.5744832240      -35.1486252408       15.8066834809  MEMB      80              0.0000000000
      9112        80  SAPE      O32            11.2302002704      -35.8650658708       14.9093237004  MEMB      80              0.0000000000
      9113        80  SAPE      C32            12.3633957288      -33.9037007792       15.5874015203  MEMB      80              0.0000000000
      9114        80  SAPE      H2X            12.1334202909      -33.1854127971       16.4031798102  MEMB      80              0.0000000000
      9115        80  SAPE      H2Y            12.0451183854      -33.3572599522       14.6739339044  MEMB      80              0.0000000000
      9116        80  SAPE      C23            13.3359764560      -39.3491051887       14.1596663357  MEMB      80              0.0000000000
      9117        80  SAPE      H3R            12.5802265307      -38.8222619258       13.5386997583  MEMB      80              0.0000000000
      9118        80  SAPE      H3S            13.0588525173      -40.3736378412       14.4880804610  MEMB      80              0.0000000000
      9119        80  SAPE      C24            14.5808468321      -39.4275850556       13.2990731153  MEMB      80              0.0000000000
      9120        80  SAPE      H4R            14.3272103104      -40.1893308479       12.5311330260  MEMB      80              0.0000000000
      9121        80  SAPE      H4S            15.3287228315      -39.9321128489       13.9474975553  MEMB      80              0.0000000000
      9122        80  SAPE      C25            15.0961734430      -38.2061650323       12.6608226958  MEMB      80              0.0000000000
      9123        80  SAPE      H5R            15.8899286191      -37.7778712658       13.2905189379  MEMB      80              0.0000000000
      9124        80  SAPE      C26            14.6390187498      -37.7060042559       11.5869173408  MEMB      80              0.0000000000
      9125        80  SAPE      H6R            15.1177307039      -36.7873320948       11.2169495697  MEMB      80              0.0000000000
      9126        80  SAPE      C27            13.4939612683      -38.0850072441       10.6894666861  MEMB      80              0.0000000000
      9127        80  SAPE      H7R            13.4392511314      -39.1634163476       10.4280058551  MEMB      80              0.0000000000
      9128        80  SAPE      H7S            13.7397465381      -37.7899554205        9.6469436105  MEMB      80              0.0000000000
      9129        80  SAPE      C28            12.1093786645      -37.6055135774       11.0329110359  MEMB      80              0.0000000000
      9130        80  SAPE      H8R            11.4599584268      -38.3137408536       11.5683239642  MEMB      80              0.0000000000
      9131        80  SAPE      C29            11.6113579049      -36.3970879697       10.7969153101  MEMB      80              0.0000000000
      9132        80  SAPE      H9R            10.5307288743      -36.3017349246       10.9789837428  MEMB      80              0.0000000000
      9133        80  SAPE      C210           12.3772259006      -35.2187028364       10.1472597064  MEMB      80              0.0000000000
      9134        80  SAPE      H10R           12.8517336295      -35.4931995623        9.1809181772  MEMB      80              0.0000000000
      9135        80  SAPE      H10S           13.2662366528      -35.0174082170       10.7824456057  MEMB      80              0.0000000000
      9136        80  SAPE      C211           11.4351708206      -34.1060531954        9.9947494390  MEMB      80              0.0000000000
      9137        80  SAPE      H11R           11.2721959596      -33.4444062614       10.8582664303  MEMB      80              0.0000000000
      9138        80  SAPE      C212           10.7013190302      -33.8476130403        8.9117823704  MEMB      80              0.0000000000
      9139        80  SAPE      H12R            9.9263749445      -33.0858195755        9.0824632322  MEMB      80              0.0000000000
      9140        80  SAPE      C213           10.6657047649      -34.7016750101        7.6195403935  MEMB      80              0.0000000000
      9141        80  SAPE      H13R            9.9099765370      -34.3639348781        6.8785091239  MEMB      80              0.0000000000
      9142        80  SAPE      H13S           10.3685423677      -35.7133620312        7.9695468049  MEMB      80              0.0000000000
      9143        80  SAPE      C214           11.8662882353      -34.7433774930        6.7512751208  MEMB      80              0.0000000000
      9144        80  SAPE      H14R           12.8146290331      -34.4635355104        7.2332906435  MEMB      80              0.0000000000
      9145        80  SAPE      C215           11.8965347214      -35.0883375064        5.4245579623  MEMB      80              0.0000000000
      9146        80  SAPE      H15R           12.8928577539      -35.2626650748        4.9921804577  MEMB      80              0.0000000000
      9147        80  SAPE      C216           10.8029465671      -35.4703649207        4.4467873429  MEMB      80              0.0000000000
      9148        80  SAPE      H16R            9.8950520137      -35.6933026935        5.0470763984  MEMB      80              0.0000000000
      9149        80  SAPE      H16S           11.0289984256      -36.4197301926        3.9158201139  MEMB      80              0.0000000000
      9150        80  SAPE      C217           10.5096446000      -34.4616214599        3.3772667258  MEMB      80              0.0000000000
      9151        80  SAPE      H17R           10.0643233067      -33.5244149405        3.7743221515  MEMB      80              0.0000000000
      9152        80  SAPE      H17S            9.7254597260      -34.8597362297        2.6983860375  MEMB      80              0.0000000000
      9153        80  SAPE      C218           11.7853417900      -34.1038495203        2.5369162821  MEMB      80              0.0000000000
      9154        80  SAPE      H18R           11.9240906720      -35.0754567085        2.0162918597  MEMB      80              0.0000000000
      9155        80  SAPE      H18S           12.7178053607      -33.9650373384        3.1247632864  MEMB      80              0.0000000000
      9156        80  SAPE      C219           11.5406899289      -32.9791515175        1.5054733019  MEMB      80              0.0000000000
      9157        80  SAPE      H19R           11.1354735255      -32.0477510658        1.9556013641  MEMB      80              0.0000000000
      9158        80  SAPE      H19S           10.7129527299      -33.1936162312        0.7961254308  MEMB      80              0.0000000000
      9159        80  SAPE      C220           12.7416600109      -32.4846299293        0.6189371597  MEMB      80              0.0000000000
      9160        80  SAPE      H20R           12.5138637748      -31.5453048405        0.0711251758  MEMB      80              0.0000000000
      9161        80  SAPE      H20S           13.0905650766      -33.2038696446       -0.1526059945  MEMB      80              0.0000000000
      9162        80  SAPE      H20T           13.6458318912      -32.1881875805        1.1924504823  MEMB      80              0.0000000000
      9163        80  SAPE      C33            13.8715357601      -34.1964845376       15.6192594216  MEMB      80              0.0000000000
      9164        80  SAPE      H3X            14.1606073042      -35.1760273543       16.0565858548  MEMB      80              0.0000000000
      9165        80  SAPE      H3Y            14.1555497011      -33.4999309578       16.4368596038  MEMB      80              0.0000000000
      9166        80  SAPE      C34            14.5232302715      -33.8033925512       14.2865047734  MEMB      80              0.0000000000
      9167        80  SAPE      H4X            14.1792332256      -32.7911470673       13.9842694324  MEMB      80              0.0000000000
      9168        80  SAPE      H4Y            14.1279504610      -34.4745194829       13.4942520950  MEMB      80              0.0000000000
      9169        80  SAPE      C35            16.0429135264      -33.9591663069       14.3428820850  MEMB      80              0.0000000000
      9170        80  SAPE      H5X            16.2216075402      -35.0524258903       14.4275753012  MEMB      80              0.0000000000
      9171        80  SAPE      H5Y            16.4336790532      -33.4038401265       15.2222207230  MEMB      80              0.0000000000
      9172        80  SAPE      C36            16.8406207203      -33.3217260943       13.1492058388  MEMB      80              0.0000000000
      9173        80  SAPE      H6X            17.8858679682      -33.5806895461       13.4225499481  MEMB      80              0.0000000000
      9174        80  SAPE      H6Y            16.6817752516      -32.2221437151       13.1463800892  MEMB      80              0.0000000000
      9175        80  SAPE      C37            16.5099501428      -33.9837058980       11.7318146105  MEMB      80              0.0000000000
      9176        80  SAPE      H7X            15.4360352204      -33.6992114236       11.7413344622  MEMB      80              0.0000000000
      9177        80  SAPE      H7Y            16.5672498153      -35.0925655032       11.7701300002  MEMB      80              0.0000000000
      9178        80  SAPE      C38            17.3178554920      -33.3677183932       10.5545500579  MEMB      80              0.0000000000
      9179        80  SAPE      H8X            18.3852600240      -33.2320209482       10.8312359619  MEMB      80              0.0000000000
      9180        80  SAPE      H8Y            16.8788890407      -32.3872958613       10.2709989806  MEMB      80              0.0000000000
      9181        80  SAPE      C39            17.2501304556      -34.2850382130        9.3905327234  MEMB      80              0.0000000000
      9182        80  SAPE      H9X            17.9020774067      -35.1430910287        9.6607762767  MEMB      80              0.0000000000
      9183        80  SAPE      H9Y            17.7462244679      -33.7845973872        8.5315968495  MEMB      80              0.0000000000
      9184        80  SAPE      C310           15.8324142439      -34.8115386807        8.9991587656  MEMB      80              0.0000000000
      9185        80  SAPE      H10X           15.1218396011      -33.9575627552        8.9877598224  MEMB      80              0.0000000000
      9186        80  SAPE      H10Y           15.4777613675      -35.5245429091        9.7738638144  MEMB      80              0.0000000000
      9187        80  SAPE      C311           15.8172431293      -35.4766425991        7.6687258702  MEMB      80              0.0000000000
      9188        80  SAPE      H11X           16.4201536516      -35.0102707450        6.8604458930  MEMB      80              0.0000000000
      9189        80  SAPE      H11Y           14.7691899463      -35.4994868900        7.3007810344  MEMB      80              0.0000000000
      9190        80  SAPE      C312           16.3963370361      -36.9070940182        7.7402358449  MEMB      80              0.0000000000
      9191        80  SAPE      H12X           15.7139354216      -37.4606251694        8.4201271926  MEMB      80              0.0000000000
      9192        80  SAPE      H12Y           17.4433393662      -36.8602446249        8.1088992128  MEMB      80              0.0000000000
      9193        80  SAPE      C313           16.3490492172      -37.7187666855        6.4260226845  MEMB      80              0.0000000000
      9194        80  SAPE      H13X           17.1397954008      -38.4984613806        6.3925938608  MEMB      80              0.0000000000
      9195        80  SAPE      H13Y           16.5380542216      -36.9165544309        5.6810034630  MEMB      80              0.0000000000
      9196        80  SAPE      C314           14.9165118889      -38.2463430222        6.0049827621  MEMB      80              0.0000000000
      9197        80  SAPE      H14X           14.2391037472      -37.3660803039        6.0290013329  MEMB      80              0.0000000000
      9198        80  SAPE      H14Y           14.5512194167      -38.8439431705        6.8673958190  MEMB      80              0.0000000000
      9199        80  SAPE      C315           14.9825506369      -39.1301475369        4.7242338082  MEMB      80              0.0000000000
      9200        80  SAPE      H15X           15.3592399111      -40.1442988401        4.9770646041  MEMB      80              0.0000000000
      9201        80  SAPE      H15Y           15.7449908536      -38.6155889392        4.1011481465  MEMB      80              0.0000000000
      9202        80  SAPE      C316           13.7019146218      -39.2531393552        3.9496525469  MEMB      80              0.0000000000
      9203        80  SAPE      H16X           13.3420375487      -38.2401016024        3.6693592797  MEMB      80              0.0000000000
      9204        80  SAPE      H16Y           12.9070128139      -39.7501888328        4.5458017961  MEMB      80              0.0000000000
      9205        80  SAPE      C317           13.8535555757      -40.0013807784        2.5809451947  MEMB      80              0.0000000000
      9206        80  SAPE      H17X           14.5495983077      -40.8246476843        2.8494156146  MEMB      80              0.0000000000
      9207        80  SAPE      H17Y           14.2838523773      -39.3156295619        1.8200836867  MEMB      80              0.0000000000
      9208        80  SAPE      C318           12.5228130544      -40.6083045064        2.0130531686  MEMB      80              0.0000000000
      9209        80  SAPE      H18X           12.5776212167      -41.2903667809        1.1377763359  MEMB      80              0.0000000000
      9210        80  SAPE      H18Y           11.9062319137      -39.7247690126        1.7419177094  MEMB      80              0.0000000000
      9211        80  SAPE      H18Z           12.0337043494      -41.1888942303        2.8242298573  MEMB      80              0.0000000000
      9212        81  CHL1      C3            -34.4773058663       17.6423142674       17.3375650000  MEMB      81              0.0000000000
      9213        81  CHL1      H3            -33.4954549867       17.6640563916       16.8181150000  MEMB      81              0.0000000000
      9214        81  CHL1      O3            -34.6048515337       18.1788223326       18.6624350000  MEMB      81              0.0000000000
      9215        81  CHL1      H3'           -34.0035814635       17.7575974417       19.2810150000  MEMB      81              0.0000000000
      9216        81  CHL1      C4            -35.3931610883       18.4019064015       16.4305450000  MEMB      81              0.0000000000
      9217        81  CHL1      H4A           -36.4154305632       18.4624613711       16.8613750000  MEMB      81              0.0000000000
      9218        81  CHL1      H4B           -35.0205764755       19.4326753571       16.2488350000  MEMB      81              0.0000000000
      9219        81  CHL1      C5            -35.5198399819       17.7582067572       15.0389750000  MEMB      81              0.0000000000
      9220        81  CHL1      C6            -35.2185872209       18.4447187516       13.8842150000  MEMB      81              0.0000000000
      9221        81  CHL1      H6            -35.0087727687       19.5221314777       13.9560950000  MEMB      81              0.0000000000
      9222        81  CHL1      C7            -35.2818405739       17.8676219398       12.5172950000  MEMB      81              0.0000000000
      9223        81  CHL1      H7A           -35.5216136427       18.5961759515       11.7135350000  MEMB      81              0.0000000000
      9224        81  CHL1      H7B           -34.2497963287       17.5543799949       12.2506950000  MEMB      81              0.0000000000
      9225        81  CHL1      C8            -36.1910441232       16.6878032565       12.4243650000  MEMB      81              0.0000000000
      9226        81  CHL1      H8            -37.2313915714       17.0613369124       12.5360850000  MEMB      81              0.0000000000
      9227        81  CHL1      C14           -36.1117237977       16.0108842152       11.0992150000  MEMB      81              0.0000000000
      9228        81  CHL1      H14           -35.0552026353       15.7615749460       10.8627150000  MEMB      81              0.0000000000
      9229        81  CHL1      C15           -36.4071643390       16.9161774419        9.8478750000  MEMB      81              0.0000000000
      9230        81  CHL1      H15A          -37.1232233089       17.7410329820       10.0508650000  MEMB      81              0.0000000000
      9231        81  CHL1      H15B          -35.5581527295       17.5238988984        9.4681850000  MEMB      81              0.0000000000
      9232        81  CHL1      C16           -36.8660138456       15.9025718452        8.8215650000  MEMB      81              0.0000000000
      9233        81  CHL1      H16A          -37.8284007265       16.1900078353        8.3466850000  MEMB      81              0.0000000000
      9234        81  CHL1      H16B          -36.0920740001       15.7909963548        8.0323350000  MEMB      81              0.0000000000
      9235        81  CHL1      C17           -37.0171019308       14.5578054750        9.5173750000  MEMB      81              0.0000000000
      9236        81  CHL1      H17           -36.0697459400       14.0633956785        9.2134150000  MEMB      81              0.0000000000
      9237        81  CHL1      C13           -36.9545837279       14.7661198569       11.0299450000  MEMB      81              0.0000000000
      9238        81  CHL1      C18           -38.4226515661       15.1132441581       11.5000050000  MEMB      81              0.0000000000
      9239        81  CHL1      H18A          -38.5774057812       15.5194061251       12.5224550000  MEMB      81              0.0000000000
      9240        81  CHL1      H18B          -38.8872359685       15.8133998231       10.7731850000  MEMB      81              0.0000000000
      9241        81  CHL1      H18C          -39.1414677422       14.2670440476       11.5396250000  MEMB      81              0.0000000000
      9242        81  CHL1      C12           -36.1921136792       13.7343663075       11.8093850000  MEMB      81              0.0000000000
      9243        81  CHL1      H12A          -36.7096383295       12.7654663516       11.6428850000  MEMB      81              0.0000000000
      9244        81  CHL1      H12B          -35.1556308340       13.5822806812       11.4393650000  MEMB      81              0.0000000000
      9245        81  CHL1      C11           -36.1528173442       14.2206727090       13.2734650000  MEMB      81              0.0000000000
      9246        81  CHL1      H11A          -37.1305850321       14.0613666795       13.7763750000  MEMB      81              0.0000000000
      9247        81  CHL1      H11B          -35.5084439139       13.5108480860       13.8349350000  MEMB      81              0.0000000000
      9248        81  CHL1      C9            -35.7563461242       15.7488120929       13.5416250000  MEMB      81              0.0000000000
      9249        81  CHL1      H9            -34.6515632020       15.6970758263       13.4362750000  MEMB      81              0.0000000000
      9250        81  CHL1      C10           -35.8878718874       16.3086921015       14.9844850000  MEMB      81              0.0000000000
      9251        81  CHL1      C19           -37.4281661503       16.2199149662       15.2822550000  MEMB      81              0.0000000000
      9252        81  CHL1      H19A          -38.0987547991       16.5688119741       14.4680650000  MEMB      81              0.0000000000
      9253        81  CHL1      H19B          -37.7826347724       15.1814393848       15.4561450000  MEMB      81              0.0000000000
      9254        81  CHL1      H19C          -37.7266978344       16.8878085614       16.1183850000  MEMB      81              0.0000000000
      9255        81  CHL1      C1            -35.1423773125       15.4614197917       16.0652750000  MEMB      81              0.0000000000
      9256        81  CHL1      H1A           -35.5969273084       14.4835424249       16.3326050000  MEMB      81              0.0000000000
      9257        81  CHL1      H1B           -34.0981938971       15.3314221536       15.7087650000  MEMB      81              0.0000000000
      9258        81  CHL1      C2            -35.0188470904       16.2030318196       17.4508050000  MEMB      81              0.0000000000
      9259        81  CHL1      H2A           -34.3748539314       15.5903470129       18.1172850000  MEMB      81              0.0000000000
      9260        81  CHL1      H2B           -36.0446324640       16.1590449557       17.8752350000  MEMB      81              0.0000000000
      9261        81  CHL1      C20           -38.0862361637       13.5493100483        8.8919250000  MEMB      81              0.0000000000
      9262        81  CHL1      H20           -38.9423083265       14.2218491093        8.6702050000  MEMB      81              0.0000000000
      9263        81  CHL1      C21           -38.3566835658       12.3191319233        9.7372750000  MEMB      81              0.0000000000
      9264        81  CHL1      H21A          -37.3682102675       11.8183414048        9.8175750000  MEMB      81              0.0000000000
      9265        81  CHL1      H21B          -39.0857572088       11.6032965218        9.3009850000  MEMB      81              0.0000000000
      9266        81  CHL1      H21C          -38.7065479318       12.6521069083       10.7377950000  MEMB      81              0.0000000000
      9267        81  CHL1      C22           -37.5725677401       13.1041918192        7.4932050000  MEMB      81              0.0000000000
      9268        81  CHL1      H22A          -37.0619766343       14.0142401789        7.1118450000  MEMB      81              0.0000000000
      9269        81  CHL1      H22B          -36.8996477950       12.2349299481        7.6540950000  MEMB      81              0.0000000000
      9270        81  CHL1      C23           -38.6960798760       12.8761503557        6.3911850000  MEMB      81              0.0000000000
      9271        81  CHL1      H23A          -39.3346913750       12.0711737576        6.8136850000  MEMB      81              0.0000000000
      9272        81  CHL1      H23B          -39.1126687859       13.9057929031        6.3665950000  MEMB      81              0.0000000000
      9273        81  CHL1      C24           -38.1148043686       12.4521431169        5.0677750000  MEMB      81              0.0000000000
      9274        81  CHL1      H24A          -37.0521323006       12.2088150318        5.2818750000  MEMB      81              0.0000000000
      9275        81  CHL1      H24B          -38.5118349349       11.4908415194        4.6771550000  MEMB      81              0.0000000000
      9276        81  CHL1      C25           -38.0166137319       13.5871400839        3.9558050000  MEMB      81              0.0000000000
      9277        81  CHL1      H25           -39.0480434266       13.9727463565        3.8082550000  MEMB      81              0.0000000000
      9278        81  CHL1      C26           -37.0725585800       14.7986528077        4.3090550000  MEMB      81              0.0000000000
      9279        81  CHL1      H26A          -37.5132842808       15.3003627933        5.1969650000  MEMB      81              0.0000000000
      9280        81  CHL1      H26B          -36.0371282292       14.5277186208        4.6070350000  MEMB      81              0.0000000000
      9281        81  CHL1      H26C          -37.0898567606       15.4753079462        3.4280550000  MEMB      81              0.0000000000
      9282        81  CHL1      C27           -37.4832466142       13.0324760345        2.5807850000  MEMB      81              0.0000000000
      9283        81  CHL1      H27A          -38.0462615744       12.1221325446        2.2831150000  MEMB      81              0.0000000000
      9284        81  CHL1      H27B          -37.6682242871       13.8781504192        1.8844050000  MEMB      81              0.0000000000
      9285        81  CHL1      H27C          -36.3829508889       12.8864354331        2.6290950000  MEMB      81              0.0000000000
      9286        82  SAPE      N              35.1289829580      -14.2039426995       20.9723858496  MEMB      82              0.0000000000
      9287        82  SAPE      HN1            36.1569318473      -14.1977308893       20.8146442533  MEMB      82              0.0000000000
      9288        82  SAPE      HN2            34.7070642110      -13.2568907052       20.8906701207  MEMB      82              0.0000000000
      9289        82  SAPE      HN3            34.9845325828      -14.6762888424       21.8876034272  MEMB      82              0.0000000000
      9290        82  SAPE      C12            34.6137851529      -15.0010783866       19.7752531282  MEMB      82              0.0000000000
      9291        82  SAPE      H12A           34.5012438400      -14.2386396376       18.9750390753  MEMB      82              0.0000000000
      9292        82  SAPE      H12B           33.6722390291      -15.4170222193       20.1933472185  MEMB      82              0.0000000000
      9293        82  SAPE      C11            35.7446185039      -16.0372040783       19.4658680088  MEMB      82              0.0000000000
      9294        82  SAPE      H11A           36.7313127256      -15.5537611089       19.3014343751  MEMB      82              0.0000000000
      9295        82  SAPE      H11B           35.4396236609      -16.4710342640       18.4896044970  MEMB      82              0.0000000000
      9296        82  SAPE      P              35.6246049561      -18.4979855867       19.9559474331  MEMB      82              0.0000000000
      9297        82  SAPE      O13            35.8331880185      -19.4000282108       21.1104795696  MEMB      82              0.0000000000
      9298        82  SAPE      O14            34.2942122901      -18.5052617148       19.3552624920  MEMB      82              0.0000000000
      9299        82  SAPE      O12            35.8806502755      -17.0280787692       20.4437967080  MEMB      82              0.0000000000
      9300        82  SAPE      O11            36.7393938974      -18.7560917882       18.9210068123  MEMB      82              0.0000000000
      9301        82  SAPE      C1             38.0647473906      -18.3772615060       19.3272422362  MEMB      82              0.0000000000
      9302        82  SAPE      HA             38.2086878705      -17.2768221054       19.3785798882  MEMB      82              0.0000000000
      9303        82  SAPE      HB             38.3313598682      -18.9212184890       20.2585582975  MEMB      82              0.0000000000
      9304        82  SAPE      C2             39.1315482169      -18.8062299885       18.2606078864  MEMB      82              0.0000000000
      9305        82  SAPE      HS             40.0387130911      -18.1711436204       18.3502640238  MEMB      82              0.0000000000
      9306        82  SAPE      O21            38.5910191216      -18.6736772811       16.9218177849  MEMB      82              0.0000000000
      9307        82  SAPE      C21            38.2055091387      -17.5553164055       16.5049779924  MEMB      82              0.0000000000
      9308        82  SAPE      O22            38.3473871127      -16.4820768706       17.0594106428  MEMB      82              0.0000000000
      9309        82  SAPE      C22            37.6751695889      -17.7862006922       15.0521753105  MEMB      82              0.0000000000
      9310        82  SAPE      H2R            38.4977567235      -18.1550737514       14.4028646183  MEMB      82              0.0000000000
      9311        82  SAPE      H2S            36.8701937618      -18.5458646674       15.1483294264  MEMB      82              0.0000000000
      9312        82  SAPE      C3             39.4677788500      -20.3140232763       18.5703229209  MEMB      82              0.0000000000
      9313        82  SAPE      HX             39.9222272556      -20.5668877793       19.5520851433  MEMB      82              0.0000000000
      9314        82  SAPE      HY             40.2518500332      -20.6633067466       17.8649478283  MEMB      82              0.0000000000
      9315        82  SAPE      O31            38.2969332455      -21.1740733306       18.5374019919  MEMB      82              0.0000000000
      9316        82  SAPE      C31            38.0959342598      -22.0005441572       17.5691770516  MEMB      82              0.0000000000
      9317        82  SAPE      O32            38.8725452110      -22.2032294666       16.6244173872  MEMB      82              0.0000000000
      9318        82  SAPE      C32            36.6648600242      -22.5973408060       17.8521608664  MEMB      82              0.0000000000
      9319        82  SAPE      H2X            36.5454929426      -23.2184425271       18.7655639965  MEMB      82              0.0000000000
      9320        82  SAPE      H2Y            36.6018189311      -23.3874115444       17.0736140130  MEMB      82              0.0000000000
      9321        82  SAPE      C23            37.0709437372      -16.4481698363       14.5180946002  MEMB      82              0.0000000000
      9322        82  SAPE      H3R            37.0129708734      -16.4456679517       13.4086112760  MEMB      82              0.0000000000
      9323        82  SAPE      H3S            37.7839247018      -15.6446144269       14.8014276378  MEMB      82              0.0000000000
      9324        82  SAPE      C24            35.6347617244      -16.1372502980       14.9683838926  MEMB      82              0.0000000000
      9325        82  SAPE      H4R            35.3885337530      -15.1526747383       14.5163841721  MEMB      82              0.0000000000
      9326        82  SAPE      H4S            35.4849588082      -15.9199437789       16.0475772056  MEMB      82              0.0000000000
      9327        82  SAPE      C25            34.5777137247      -17.2421543826       14.7618914781  MEMB      82              0.0000000000
      9328        82  SAPE      H5R            34.5029723721      -17.9829157400       15.5716359080  MEMB      82              0.0000000000
      9329        82  SAPE      C26            33.8893316175      -17.3145027601       13.5833030923  MEMB      82              0.0000000000
      9330        82  SAPE      H6R            33.0873656665      -18.0658498622       13.5350517912  MEMB      82              0.0000000000
      9331        82  SAPE      C27            34.0654009062      -16.3259319338       12.3668713585  MEMB      82              0.0000000000
      9332        82  SAPE      H7R            34.3582641770      -15.3285504296       12.7590221275  MEMB      82              0.0000000000
      9333        82  SAPE      H7S            33.0591874274      -16.2625156143       11.9001448959  MEMB      82              0.0000000000
      9334        82  SAPE      C28            35.0342340249      -16.8148307420       11.2366168298  MEMB      82              0.0000000000
      9335        82  SAPE      H8R            35.0882556243      -17.9121045109       11.1811913697  MEMB      82              0.0000000000
      9336        82  SAPE      C29            35.9109570005      -16.1794869919       10.4805116446  MEMB      82              0.0000000000
      9337        82  SAPE      H9R            36.4899157987      -16.7950641194        9.7763300891  MEMB      82              0.0000000000
      9338        82  SAPE      C210           36.1762192917      -14.6719148626       10.4391829518  MEMB      82              0.0000000000
      9339        82  SAPE      H10R           36.8338560256      -14.3371209274       11.2696939396  MEMB      82              0.0000000000
      9340        82  SAPE      H10S           35.2221705232      -14.1149330497       10.5570094726  MEMB      82              0.0000000000
      9341        82  SAPE      C211           36.9919140916      -14.2529832048        9.2366774851  MEMB      82              0.0000000000
      9342        82  SAPE      H11R           38.0786326329      -14.1812452855        9.3912634428  MEMB      82              0.0000000000
      9343        82  SAPE      C212           36.6473921270      -13.8058981448        8.0208776611  MEMB      82              0.0000000000
      9344        82  SAPE      H12R           37.4392754902      -13.5420494951        7.3044251705  MEMB      82              0.0000000000
      9345        82  SAPE      C213           35.2291056149      -13.5721120892        7.5183392548  MEMB      82              0.0000000000
      9346        82  SAPE      H13R           34.3697272871      -13.4820296154        8.2166759774  MEMB      82              0.0000000000
      9347        82  SAPE      H13S           35.0224912628      -14.5247459845        6.9853098235  MEMB      82              0.0000000000
      9348        82  SAPE      C214           35.1430249174      -12.5183950977        6.4359218739  MEMB      82              0.0000000000
      9349        82  SAPE      H14R           35.0391595947      -11.4705494736        6.7540914202  MEMB      82              0.0000000000
      9350        82  SAPE      C215           35.2941367238      -12.6392323892        5.1231862780  MEMB      82              0.0000000000
      9351        82  SAPE      H15R           35.2076890497      -11.7017492170        4.5542810847  MEMB      82              0.0000000000
      9352        82  SAPE      C216           35.5940995101      -13.8565957470        4.3073921517  MEMB      82              0.0000000000
      9353        82  SAPE      H16R           34.8247168744      -13.9640793082        3.5131519018  MEMB      82              0.0000000000
      9354        82  SAPE      H16S           35.6050703437      -14.8279424619        4.8465452035  MEMB      82              0.0000000000
      9355        82  SAPE      C217           36.9645875678      -13.5195362222        3.6241354184  MEMB      82              0.0000000000
      9356        82  SAPE      H17R           37.7458852396      -13.3339286630        4.3918893235  MEMB      82              0.0000000000
      9357        82  SAPE      H17S           36.7062789883      -12.6228848835        3.0211323509  MEMB      82              0.0000000000
      9358        82  SAPE      C218           37.4481881553      -14.5084387317        2.5951032099  MEMB      82              0.0000000000
      9359        82  SAPE      H18R           38.4276003524      -14.1833757740        2.1835114785  MEMB      82              0.0000000000
      9360        82  SAPE      H18S           36.9131834208      -14.6118154150        1.6269064137  MEMB      82              0.0000000000
      9361        82  SAPE      C219           37.6826219018      -15.9426057015        3.1180995496  MEMB      82              0.0000000000
      9362        82  SAPE      H19R           36.7109589894      -16.3752236770        3.4390890355  MEMB      82              0.0000000000
      9363        82  SAPE      H19S           38.2636849929      -15.9584882002        4.0649026937  MEMB      82              0.0000000000
      9364        82  SAPE      C220           38.3241444152      -16.9738399725        2.1753628334  MEMB      82              0.0000000000
      9365        82  SAPE      H20R           39.1713803273      -16.5795293278        1.5745034858  MEMB      82              0.0000000000
      9366        82  SAPE      H20S           37.5022229439      -17.3934209395        1.5567201470  MEMB      82              0.0000000000
      9367        82  SAPE      H20T           38.7880192648      -17.6817996393        2.8950388187  MEMB      82              0.0000000000
      9368        82  SAPE      C33            35.6035728821      -21.4986110746       17.7608907519  MEMB      82              0.0000000000
      9369        82  SAPE      H3X            35.9157303992      -20.7255458993       17.0265550975  MEMB      82              0.0000000000
      9370        82  SAPE      H3Y            35.4412884726      -21.1014368395       18.7857016053  MEMB      82              0.0000000000
      9371        82  SAPE      C34            34.1680217867      -21.8980925317       17.3426577657  MEMB      82              0.0000000000
      9372        82  SAPE      H4X            33.4719337650      -21.0361093441       17.4249219742  MEMB      82              0.0000000000
      9373        82  SAPE      H4Y            33.8214930822      -22.6750281619       18.0572275332  MEMB      82              0.0000000000
      9374        82  SAPE      C35            34.2280564827      -22.2325263276       15.8457456951  MEMB      82              0.0000000000
      9375        82  SAPE      H5X            33.2479603117      -22.5218587615       15.4098339820  MEMB      82              0.0000000000
      9376        82  SAPE      H5Y            34.7706023402      -23.1994869131       15.7753756146  MEMB      82              0.0000000000
      9377        82  SAPE      C36            34.6002037697      -21.0274846724       14.8431302305  MEMB      82              0.0000000000
      9378        82  SAPE      H6X            35.5749221825      -20.6951905273       15.2600545035  MEMB      82              0.0000000000
      9379        82  SAPE      H6Y            33.8172904306      -20.2447847199       14.9366617735  MEMB      82              0.0000000000
      9380        82  SAPE      C37            34.7587975525      -21.3614276874       13.3523703911  MEMB      82              0.0000000000
      9381        82  SAPE      H7X            33.9115475381      -20.8349905470       12.8631340134  MEMB      82              0.0000000000
      9382        82  SAPE      H7Y            34.6855943077      -22.4655928495       13.2534670960  MEMB      82              0.0000000000
      9383        82  SAPE      C38            36.1375484280      -20.9012713745       12.7775273232  MEMB      82              0.0000000000
      9384        82  SAPE      H8X            36.9124577280      -21.5849552465       13.1854648580  MEMB      82              0.0000000000
      9385        82  SAPE      H8Y            36.2968133200      -19.8742279367       13.1701309752  MEMB      82              0.0000000000
      9386        82  SAPE      C39            36.0144702668      -21.0964322988       11.2410093146  MEMB      82              0.0000000000
      9387        82  SAPE      H9X            34.9625885253      -20.7746004315       11.0851570419  MEMB      82              0.0000000000
      9388        82  SAPE      H9Y            36.2359180179      -22.1593174088       11.0053029698  MEMB      82              0.0000000000
      9389        82  SAPE      C310           37.0736924288      -20.1797994799       10.4922805186  MEMB      82              0.0000000000
      9390        82  SAPE      H10X           38.0596972699      -20.4078589960       10.9506523801  MEMB      82              0.0000000000
      9391        82  SAPE      H10Y           36.8537975945      -19.1273823721       10.7722544505  MEMB      82              0.0000000000
      9392        82  SAPE      C311           37.1351101682      -20.3462126793        8.9377608812  MEMB      82              0.0000000000
      9393        82  SAPE      H11X           37.5262505377      -21.3501037177        8.6665903994  MEMB      82              0.0000000000
      9394        82  SAPE      H11Y           37.9739990060      -19.7196900697        8.5662014557  MEMB      82              0.0000000000
      9395        82  SAPE      C312           35.8283392076      -19.9761468448        8.2068098554  MEMB      82              0.0000000000
      9396        82  SAPE      H12X           35.7164595034      -18.8708045190        8.2020902095  MEMB      82              0.0000000000
      9397        82  SAPE      H12Y           34.9869182134      -20.4848634606        8.7240519043  MEMB      82              0.0000000000
      9398        82  SAPE      C313           35.8455687182      -20.4155949182        6.7230013162  MEMB      82              0.0000000000
      9399        82  SAPE      H13X           35.7319584956      -21.5180733900        6.6458347551  MEMB      82              0.0000000000
      9400        82  SAPE      H13Y           36.8885515990      -20.2615078040        6.3726226464  MEMB      82              0.0000000000
      9401        82  SAPE      C314           34.9791255897      -19.6065947755        5.8000100264  MEMB      82              0.0000000000
      9402        82  SAPE      H14X           35.2038761227      -18.5286065748        5.9474867283  MEMB      82              0.0000000000
      9403        82  SAPE      H14Y           33.9158437801      -19.7159837731        6.1029730194  MEMB      82              0.0000000000
      9404        82  SAPE      C315           34.8902134828      -19.9434655281        4.2608090163  MEMB      82              0.0000000000
      9405        82  SAPE      H15X           33.8615564295      -19.7028539923        3.9168730650  MEMB      82              0.0000000000
      9406        82  SAPE      H15Y           35.0187013327      -21.0470037096        4.2646909803  MEMB      82              0.0000000000
      9407        82  SAPE      C316           35.8263303298      -19.1693702957        3.3229268983  MEMB      82              0.0000000000
      9408        82  SAPE      H16X           36.8661296279      -19.3934423952        3.6437552664  MEMB      82              0.0000000000
      9409        82  SAPE      H16Y           35.6617441749      -18.0805680171        3.4703787462  MEMB      82              0.0000000000
      9410        82  SAPE      C317           35.5875942766      -19.4411795407        1.8329875734  MEMB      82              0.0000000000
      9411        82  SAPE      H17X           36.2980102073      -18.9882482242        1.1087744003  MEMB      82              0.0000000000
      9412        82  SAPE      H17Y           34.5858166614      -19.0226225688        1.5972489783  MEMB      82              0.0000000000
      9413        82  SAPE      C318           35.4362812032      -20.9255964989        1.3684012270  MEMB      82              0.0000000000
      9414        82  SAPE      H18X           34.5457536889      -21.2967359683        1.9193439040  MEMB      82              0.0000000000
      9415        82  SAPE      H18Y           36.2422889401      -21.5647594309        1.7880944453  MEMB      82              0.0000000000
      9416        82  SAPE      H18Z           35.2875762971      -21.1115797176        0.2832199747  MEMB      82              0.0000000000
      9417        83  SLPC      N             -18.4715527346       37.3733166606       16.6242260502  MEMB      83              0.0000000000
      9418        83  SLPC      C13           -17.9358981572       37.1720167607       15.3202701067  MEMB      83              0.0000000000
      9419        83  SLPC      H13A          -17.8398304739       36.0972603946       15.2747733021  MEMB      83              0.0000000000
      9420        83  SLPC      H13B          -18.5607794009       37.3517618433       14.4579388609  MEMB      83              0.0000000000
      9421        83  SLPC      H13C          -17.0278387878       37.7561809354       15.2961781940  MEMB      83              0.0000000000
      9422        83  SLPC      C14           -19.7853942924       36.6820448244       16.7850367932  MEMB      83              0.0000000000
      9423        83  SLPC      H14A          -19.9706863057       36.6172375141       17.8470475323  MEMB      83              0.0000000000
      9424        83  SLPC      H14B          -20.6201167228       37.2966012643       16.4817896964  MEMB      83              0.0000000000
      9425        83  SLPC      H14C          -19.7186679915       35.7262493812       16.2866367753  MEMB      83              0.0000000000
      9426        83  SLPC      C15           -18.7003903726       38.9027210301       16.8142141872  MEMB      83              0.0000000000
      9427        83  SLPC      H15A          -19.4041359985       39.2997945019       16.0976426497  MEMB      83              0.0000000000
      9428        83  SLPC      H15B          -19.0789137938       38.9746713967       17.8231458756  MEMB      83              0.0000000000
      9429        83  SLPC      H15C          -17.7919063614       39.4818286091       16.7387760931  MEMB      83              0.0000000000
      9430        83  SLPC      C12           -17.4979021890       36.8654340594       17.6783331349  MEMB      83              0.0000000000
      9431        83  SLPC      H12A          -17.8766360981       37.0620806744       18.6704473947  MEMB      83              0.0000000000
      9432        83  SLPC      H12B          -16.6145894186       37.4606786972       17.4998883397  MEMB      83              0.0000000000
      9433        83  SLPC      C11           -16.9318199443       35.4418977108       17.5075851512  MEMB      83              0.0000000000
      9434        83  SLPC      H11A          -16.1517521108       35.2348404390       18.2710918161  MEMB      83              0.0000000000
      9435        83  SLPC      H11B          -16.4856212679       35.2039500168       16.5183386368  MEMB      83              0.0000000000
      9436        83  SLPC      P             -17.8577033253       33.0033687378       17.3214815473  MEMB      83              0.0000000000
      9437        83  SLPC      O13           -16.5256156419       32.5069701585       17.7774198364  MEMB      83              0.0000000000
      9438        83  SLPC      O14           -19.1273021396       32.2434482765       17.6532600544  MEMB      83              0.0000000000
      9439        83  SLPC      O12           -17.9759920287       34.5107463360       17.7585100057  MEMB      83              0.0000000000
      9440        83  SLPC      O11           -17.8010688711       33.2166676503       15.7596631329  MEMB      83              0.0000000000
      9441        83  SLPC      C1            -18.9891392481       33.0787497267       15.0002386612  MEMB      83              0.0000000000
      9442        83  SLPC      HA            -19.4319294988       32.0710978251       15.1515507062  MEMB      83              0.0000000000
      9443        83  SLPC      HB            -19.6748435259       33.8759197367       15.3589178964  MEMB      83              0.0000000000
      9444        83  SLPC      C2            -18.7125752182       33.2748656744       13.4848567139  MEMB      83              0.0000000000
      9445        83  SLPC      HS            -18.2024860528       32.3779905427       13.0728555363  MEMB      83              0.0000000000
      9446        83  SLPC      O21           -17.7870436546       34.3857457904       13.4626863177  MEMB      83              0.0000000000
      9447        83  SLPC      C21           -17.0578918372       34.6472798743       12.3205472709  MEMB      83              0.0000000000
      9448        83  SLPC      O22           -17.2312588223       34.1787109057       11.2292315682  MEMB      83              0.0000000000
      9449        83  SLPC      C22           -16.0981051335       35.7949667542       12.5924288454  MEMB      83              0.0000000000
      9450        83  SLPC      H2R           -16.6994198332       36.7198429130       12.7241320407  MEMB      83              0.0000000000
      9451        83  SLPC      H2S           -15.4933829553       35.6588653303       13.5144420374  MEMB      83              0.0000000000
      9452        83  SLPC      C3            -20.0023473985       33.5435064571       12.7054962144  MEMB      83              0.0000000000
      9453        83  SLPC      HX            -20.8346008835       32.8825228723       13.0291867673  MEMB      83              0.0000000000
      9454        83  SLPC      HY            -19.8085505460       33.2602363682       11.6488405077  MEMB      83              0.0000000000
      9455        83  SLPC      O31           -20.5230362080       34.9144736747       12.7691531323  MEMB      83              0.0000000000
      9456        83  SLPC      C31           -21.8445759124       35.1255489222       12.4231619785  MEMB      83              0.0000000000
      9457        83  SLPC      O32           -22.6306284546       34.2246110840       12.1434681031  MEMB      83              0.0000000000
      9458        83  SLPC      C32           -22.0252049040       36.6640223403       12.3755212127  MEMB      83              0.0000000000
      9459        83  SLPC      H2X           -21.1209700811       37.2368794588       12.6730364675  MEMB      83              0.0000000000
      9460        83  SLPC      H2Y           -22.7937486044       37.0346873190       13.0870471674  MEMB      83              0.0000000000
      9461        83  SLPC      C23           -15.1816961636       36.1660759724       11.3697008096  MEMB      83              0.0000000000
      9462        83  SLPC      H3R           -14.4973955550       37.0011255753       11.6318946379  MEMB      83              0.0000000000
      9463        83  SLPC      H3S           -15.9171100431       36.3806643568       10.5650647622  MEMB      83              0.0000000000
      9464        83  SLPC      C24           -14.3618751764       34.9989260036       10.7824449928  MEMB      83              0.0000000000
      9465        83  SLPC      H4R           -14.9707350929       34.1230292214       10.4719368766  MEMB      83              0.0000000000
      9466        83  SLPC      H4S           -13.6580771115       34.6883723042       11.5840342911  MEMB      83              0.0000000000
      9467        83  SLPC      C25           -13.6745357362       35.2437066481        9.4579722291  MEMB      83              0.0000000000
      9468        83  SLPC      H5R           -13.2192494484       34.2898078416        9.1157560851  MEMB      83              0.0000000000
      9469        83  SLPC      H5S           -12.7810718425       35.8834753284        9.6214932029  MEMB      83              0.0000000000
      9470        83  SLPC      C26           -14.5613705058       35.8944303820        8.3606888682  MEMB      83              0.0000000000
      9471        83  SLPC      H6R           -14.8842826649       36.8683710356        8.7867043037  MEMB      83              0.0000000000
      9472        83  SLPC      H6S           -15.4395002882       35.2516376663        8.1370225240  MEMB      83              0.0000000000
      9473        83  SLPC      C27           -13.6730600085       36.0879399246        7.1130852385  MEMB      83              0.0000000000
      9474        83  SLPC      H7R           -13.1980356883       35.1695456290        6.7066069451  MEMB      83              0.0000000000
      9475        83  SLPC      H7S           -12.8203580306       36.7032202976        7.4717642080  MEMB      83              0.0000000000
      9476        83  SLPC      C28           -14.3553277488       36.9543652086        5.9679227541  MEMB      83              0.0000000000
      9477        83  SLPC      H8R           -13.5617290740       37.1784999965        5.2234194296  MEMB      83              0.0000000000
      9478        83  SLPC      H8S           -14.7748033214       37.8375316046        6.4955390877  MEMB      83              0.0000000000
      9479        83  SLPC      C29           -15.4018885697       36.0006923053        5.3223618837  MEMB      83              0.0000000000
      9480        83  SLPC      H9R           -15.0479919241       35.0424816210        4.9142081717  MEMB      83              0.0000000000
      9481        83  SLPC      C210          -16.7865159296       36.1530146589        5.3859662166  MEMB      83              0.0000000000
      9482        83  SLPC      H10R          -17.4761872803       35.5403624326        4.7867912112  MEMB      83              0.0000000000
      9483        83  SLPC      C211          -17.4643332302       37.3232869799        6.0845107375  MEMB      83              0.0000000000
      9484        83  SLPC      H11R          -17.2885385982       37.2105543273        7.1757069314  MEMB      83              0.0000000000
      9485        83  SLPC      H11S          -18.5469888431       37.1613470308        5.8948979669  MEMB      83              0.0000000000
      9486        83  SLPC      C212          -17.1431900152       38.7359048208        5.6649564018  MEMB      83              0.0000000000
      9487        83  SLPC      H12R          -16.9001573673       39.4579438119        6.4584269216  MEMB      83              0.0000000000
      9488        83  SLPC      C213          -17.2106133685       39.2234204348        4.4690579591  MEMB      83              0.0000000000
      9489        83  SLPC      H13R          -16.9832870522       40.2911003521        4.3334760604  MEMB      83              0.0000000000
      9490        83  SLPC      C214          -17.6349134492       38.6055291089        3.1625963546  MEMB      83              0.0000000000
      9491        83  SLPC      H14R          -17.8275243216       37.5113899573        3.1535627625  MEMB      83              0.0000000000
      9492        83  SLPC      H14S          -16.7650840983       38.7961769966        2.4982384997  MEMB      83              0.0000000000
      9493        83  SLPC      C215          -18.8029471601       39.3212371922        2.5054666047  MEMB      83              0.0000000000
      9494        83  SLPC      H15R          -18.3321198522       40.2761343651        2.1879543095  MEMB      83              0.0000000000
      9495        83  SLPC      H15S          -19.5984990764       39.4167215555        3.2750771861  MEMB      83              0.0000000000
      9496        83  SLPC      C216          -19.2437459466       38.7180672291        1.2055322558  MEMB      83              0.0000000000
      9497        83  SLPC      H16R          -18.2669908749       38.3944153553        0.7865810233  MEMB      83              0.0000000000
      9498        83  SLPC      H16S          -19.7450114442       39.4412964044        0.5273041724  MEMB      83              0.0000000000
      9499        83  SLPC      C217          -20.0391260186       37.4042229622        1.2833459869  MEMB      83              0.0000000000
      9500        83  SLPC      H17R          -19.5447792948       36.8002719086        2.0740320760  MEMB      83              0.0000000000
      9501        83  SLPC      H17S          -19.9763384309       36.9077018474        0.2914567256  MEMB      83              0.0000000000
      9502        83  SLPC      C218          -21.4681302100       37.6351728985        1.8114635344  MEMB      83              0.0000000000
      9503        83  SLPC      H18R          -22.1604452610       38.1200862791        1.0904366962  MEMB      83              0.0000000000
      9504        83  SLPC      H18S          -21.3952457927       38.2862605538        2.7087341149  MEMB      83              0.0000000000
      9505        83  SLPC      H18T          -22.0056875561       36.6939156597        2.0551605324  MEMB      83              0.0000000000
      9506        83  SLPC      C33           -22.4694063581       37.0520267506       10.9643258852  MEMB      83              0.0000000000
      9507        83  SLPC      H3X           -22.9859490354       38.0329824053       11.0366514563  MEMB      83              0.0000000000
      9508        83  SLPC      H3Y           -23.1371879507       36.3651372711       10.4016788777  MEMB      83              0.0000000000
      9509        83  SLPC      C34           -21.1114335061       37.2066300610       10.2110935678  MEMB      83              0.0000000000
      9510        83  SLPC      H4X           -20.5677100058       36.2499557006       10.3642605261  MEMB      83              0.0000000000
      9511        83  SLPC      H4Y           -20.3679268864       37.8853721193       10.6810172604  MEMB      83              0.0000000000
      9512        83  SLPC      C35           -21.0917002257       37.6086376848        8.6592274235  MEMB      83              0.0000000000
      9513        83  SLPC      H5X           -20.0139421510       37.7773597799        8.4487714342  MEMB      83              0.0000000000
      9514        83  SLPC      H5Y           -21.4898165360       38.6402240885        8.5512743221  MEMB      83              0.0000000000
      9515        83  SLPC      C36           -21.7422477036       36.5928833842        7.7287440678  MEMB      83              0.0000000000
      9516        83  SLPC      H6X           -21.8702448758       37.0659731467        6.7316870349  MEMB      83              0.0000000000
      9517        83  SLPC      H6Y           -22.7912159979       36.5459249500        8.0917616790  MEMB      83              0.0000000000
      9518        83  SLPC      C37           -21.0827212675       35.2066882483        7.6042105867  MEMB      83              0.0000000000
      9519        83  SLPC      H7X           -21.4278269973       34.6131037531        8.4776413858  MEMB      83              0.0000000000
      9520        83  SLPC      H7Y           -19.9763843666       35.2990886827        7.5617629372  MEMB      83              0.0000000000
      9521        83  SLPC      C38           -21.4298900032       34.4399963136        6.2998745103  MEMB      83              0.0000000000
      9522        83  SLPC      H8X           -21.0570512091       35.0248764221        5.4319878530  MEMB      83              0.0000000000
      9523        83  SLPC      H8Y           -22.5274593666       34.3617471739        6.1464504480  MEMB      83              0.0000000000
      9524        83  SLPC      C39           -20.6703152268       33.0698628111        6.2403601800  MEMB      83              0.0000000000
      9525        83  SLPC      H9X           -21.0859438286       32.4142179102        7.0351581844  MEMB      83              0.0000000000
      9526        83  SLPC      H9Y           -19.5755434660       33.2108161548        6.3665664795  MEMB      83              0.0000000000
      9527        83  SLPC      C310          -20.7409523939       32.2797555946        4.9740271523  MEMB      83              0.0000000000
      9528        83  SLPC      H10X          -21.7746748224       32.0270424125        4.6548486658  MEMB      83              0.0000000000
      9529        83  SLPC      H10Y          -20.2559292139       31.2953823779        5.1474715905  MEMB      83              0.0000000000
      9530        83  SLPC      C311          -20.0566779440       32.9104193129        3.7919621211  MEMB      83              0.0000000000
      9531        83  SLPC      H11X          -20.2515215366       33.9830069499        3.5776892762  MEMB      83              0.0000000000
      9532        83  SLPC      H11Y          -20.4579409626       32.5408876925        2.8241009239  MEMB      83              0.0000000000
      9533        83  SLPC      C312          -18.5675078218       32.6549096906        3.7454441664  MEMB      83              0.0000000000
      9534        83  SLPC      H12X          -18.4302408788       31.5592297058        3.6231150171  MEMB      83              0.0000000000
      9535        83  SLPC      H12Y          -18.0580130598       33.0482140090        4.6510087754  MEMB      83              0.0000000000
      9536        83  SLPC      C313          -17.9629601476       33.4822799988        2.6315073976  MEMB      83              0.0000000000
      9537        83  SLPC      H13X          -18.1491284991       34.5757729656        2.6942409561  MEMB      83              0.0000000000
      9538        83  SLPC      H13Y          -18.3463388048       33.0643532937        1.6761645833  MEMB      83              0.0000000000
      9539        83  SLPC      C314          -16.5063266225       33.3099390943        2.5375585966  MEMB      83              0.0000000000
      9540        83  SLPC      H14X          -16.3253487846       32.2640778047        2.2093178655  MEMB      83              0.0000000000
      9541        83  SLPC      H14Y          -15.9921195675       33.4974753533        3.5043790795  MEMB      83              0.0000000000
      9542        83  SLPC      C315          -15.6513723692       34.1766383925        1.5014955163  MEMB      83              0.0000000000
      9543        83  SLPC      H15X          -14.6164793459       33.8105905015        1.6727454848  MEMB      83              0.0000000000
      9544        83  SLPC      H15Y          -15.7201115062       35.2733702444        1.6651272329  MEMB      83              0.0000000000
      9545        83  SLPC      C316          -15.9952199676       33.8253915010        0.0524417333  MEMB      83              0.0000000000
      9546        83  SLPC      H16X          -16.9777797506       34.3107319868       -0.1301557143  MEMB      83              0.0000000000
      9547        83  SLPC      H16Y          -16.1536603445       32.7268934594        0.1026385451  MEMB      83              0.0000000000
      9548        83  SLPC      C317          -15.0039157296       34.2499384698       -1.0714792715  MEMB      83              0.0000000000
      9549        83  SLPC      H17X          -14.0034719757       33.9707092383       -0.6771887346  MEMB      83              0.0000000000
      9550        83  SLPC      H17Y          -15.1411184788       35.3452089794       -1.1974901764  MEMB      83              0.0000000000
      9551        83  SLPC      C318          -15.2270355106       33.5116394435       -2.3992927563  MEMB      83              0.0000000000
      9552        83  SLPC      H18X          -15.2375672686       32.4034240250       -2.3213890804  MEMB      83              0.0000000000
      9553        83  SLPC      H18Y          -14.4752223233       33.8883236875       -3.1253828527  MEMB      83              0.0000000000
      9554        83  SLPC      H18Z          -16.1859086083       33.7130941583       -2.9230288033  MEMB      83              0.0000000000
      9555        84  SAPC      N              21.0774255975       33.2507033993       22.0530217509  MEMB      84              0.0000000000
      9556        84  SAPC      C12            20.4158237727       33.3642482679       20.7350772263  MEMB      84              0.0000000000
      9557        84  SAPC      H12A           20.3669937924       34.4131551150       20.4824705081  MEMB      84              0.0000000000
      9558        84  SAPC      H12B           19.4007547944       33.0929325824       20.9849224392  MEMB      84              0.0000000000
      9559        84  SAPC      C13            22.4937023007       33.7680703601       21.9339495418  MEMB      84              0.0000000000
      9560        84  SAPC      H13A           22.4379053041       34.7469771825       21.4811492197  MEMB      84              0.0000000000
      9561        84  SAPC      H13B           22.9772626258       33.7296150755       22.8988799637  MEMB      84              0.0000000000
      9562        84  SAPC      H13C           22.9332844107       33.2059201237       21.1232988603  MEMB      84              0.0000000000
      9563        84  SAPC      C14            20.5131608081       34.0610457755       23.2649825865  MEMB      84              0.0000000000
      9564        84  SAPC      H14A           21.0894519663       33.8197382021       24.1459246909  MEMB      84              0.0000000000
      9565        84  SAPC      H14B           20.6457303262       35.0802422726       22.9332237975  MEMB      84              0.0000000000
      9566        84  SAPC      H14C           19.4896280220       33.7790504976       23.4631218681  MEMB      84              0.0000000000
      9567        84  SAPC      C15            21.2132091780       31.8458340137       22.4737130373  MEMB      84              0.0000000000
      9568        84  SAPC      H15A           20.2446726612       31.3820961455       22.3584561245  MEMB      84              0.0000000000
      9569        84  SAPC      H15B           21.9545577692       31.3500881360       21.8645836716  MEMB      84              0.0000000000
      9570        84  SAPC      H15C           21.4652127150       31.7664499453       23.5208958769  MEMB      84              0.0000000000
      9571        84  SAPC      C11            20.6460726870       32.2653251828       19.6401251310  MEMB      84              0.0000000000
      9572        84  SAPC      H11A           19.8616593861       32.3092041228       18.8545733990  MEMB      84              0.0000000000
      9573        84  SAPC      H11B           20.5523564965       31.3092611698       20.1982290728  MEMB      84              0.0000000000
      9574        84  SAPC      P              22.2034593136       33.3703953483       17.9314277431  MEMB      84              0.0000000000
      9575        84  SAPC      O13            21.7800865566       32.7498526538       16.6960917906  MEMB      84              0.0000000000
      9576        84  SAPC      O14            21.6882398920       34.7286953225       18.2725102113  MEMB      84              0.0000000000
      9577        84  SAPC      O12            21.9807664934       32.3713331171       19.1685141902  MEMB      84              0.0000000000
      9578        84  SAPC      O11            23.7757408829       33.5292891481       17.8305867720  MEMB      84              0.0000000000
      9579        84  SAPC      C1             24.4131056864       33.5076309137       19.1215942596  MEMB      84              0.0000000000
      9580        84  SAPC      HA             23.8213259240       34.1213661922       19.8339471917  MEMB      84              0.0000000000
      9581        84  SAPC      HB             24.5194704514       32.5013309224       19.5802528676  MEMB      84              0.0000000000
      9582        84  SAPC      C2             25.8193578035       34.1631674910       18.9362730962  MEMB      84              0.0000000000
      9583        84  SAPC      HS             26.0903667170       34.7205214882       19.8583532753  MEMB      84              0.0000000000
      9584        84  SAPC      O21            25.8572949356       35.0280411426       17.8768802257  MEMB      84              0.0000000000
      9585        84  SAPC      C21            25.1366368387       36.1637925494       17.9128508333  MEMB      84              0.0000000000
      9586        84  SAPC      O22            24.6125447392       36.6242749240       18.9179015734  MEMB      84              0.0000000000
      9587        84  SAPC      C22            25.1613511054       36.7068869223       16.5058138903  MEMB      84              0.0000000000
      9588        84  SAPC      H2R            26.2016101365       37.0893792591       16.4291178621  MEMB      84              0.0000000000
      9589        84  SAPC      H2S            25.0786583984       35.8850629314       15.7627874747  MEMB      84              0.0000000000
      9590        84  SAPC      C3             26.8552787878       33.0886261495       18.6556801909  MEMB      84              0.0000000000
      9591        84  SAPC      HX             27.0074530639       32.3635974317       19.4836279857  MEMB      84              0.0000000000
      9592        84  SAPC      HY             27.8316291058       33.6129127801       18.5770384712  MEMB      84              0.0000000000
      9593        84  SAPC      O31            26.6402663339       32.3841747010       17.3920589985  MEMB      84              0.0000000000
      9594        84  SAPC      C31            26.0222475496       31.2365980234       17.5097107381  MEMB      84              0.0000000000
      9595        84  SAPC      O32            25.4613554599       30.7469298450       18.4728673468  MEMB      84              0.0000000000
      9596        84  SAPC      C32            25.9602056181       30.7339421942       16.1023988848  MEMB      84              0.0000000000
      9597        84  SAPC      H2X            26.2365797704       29.6579461119       16.1154758726  MEMB      84              0.0000000000
      9598        84  SAPC      H2Y            26.5727748338       31.3804998032       15.4382884021  MEMB      84              0.0000000000
      9599        84  SAPC      C23            24.1715095485       37.8887020964       16.4173793380  MEMB      84              0.0000000000
      9600        84  SAPC      H3R            24.5190625775       38.7644285206       17.0061330054  MEMB      84              0.0000000000
      9601        84  SAPC      H3S            23.1667154012       37.5751440374       16.7728951210  MEMB      84              0.0000000000
      9602        84  SAPC      C24            23.8322107538       38.4596244673       14.9922076943  MEMB      84              0.0000000000
      9603        84  SAPC      H4R            23.2755946293       39.3885086518       15.2405497113  MEMB      84              0.0000000000
      9604        84  SAPC      H4S            23.2133468381       37.6958529833       14.4745381702  MEMB      84              0.0000000000
      9605        84  SAPC      C25            24.9940806990       38.9170724954       14.2543041618  MEMB      84              0.0000000000
      9606        84  SAPC      H5R            25.6781377169       39.6040274126       14.7740726475  MEMB      84              0.0000000000
      9607        84  SAPC      C26            25.3909728058       38.5213622512       12.9775728992  MEMB      84              0.0000000000
      9608        84  SAPC      H6R            26.1553699655       39.0838060770       12.4213773315  MEMB      84              0.0000000000
      9609        84  SAPC      C27            24.7550785921       37.5488211747       12.0013049205  MEMB      84              0.0000000000
      9610        84  SAPC      H7R            25.1912668243       37.8556243669       11.0266600921  MEMB      84              0.0000000000
      9611        84  SAPC      H7S            23.6472246833       37.6323259266       11.9985362170  MEMB      84              0.0000000000
      9612        84  SAPC      C28            25.1960560449       36.0164130576       12.1616373156  MEMB      84              0.0000000000
      9613        84  SAPC      H8R            25.2362897878       35.5975590376       13.1779752200  MEMB      84              0.0000000000
      9614        84  SAPC      C29            25.3968360851       35.1949540715       11.0743071566  MEMB      84              0.0000000000
      9615        84  SAPC      H9R            25.5223523800       34.1299191179       11.3191461551  MEMB      84              0.0000000000
      9616        84  SAPC      C210           25.2797310980       35.4639199841        9.5397264346  MEMB      84              0.0000000000
      9617        84  SAPC      H10R           24.4321518358       36.1322278056        9.2764868758  MEMB      84              0.0000000000
      9618        84  SAPC      H10S           25.0491854305       34.5349265209        8.9756867552  MEMB      84              0.0000000000
      9619        84  SAPC      C211           26.4906081944       36.1422255523        8.8482474932  MEMB      84              0.0000000000
      9620        84  SAPC      H11R           27.1526715280       36.6450702553        9.5685385637  MEMB      84              0.0000000000
      9621        84  SAPC      C212           26.8825443866       35.9272267009        7.5848351544  MEMB      84              0.0000000000
      9622        84  SAPC      H12R           27.8859684923       36.2516564731        7.2719684084  MEMB      84              0.0000000000
      9623        84  SAPC      C213           26.2804202677       35.0575900507        6.4796358825  MEMB      84              0.0000000000
      9624        84  SAPC      H13R           25.5544534108       34.3114142618        6.8675979480  MEMB      84              0.0000000000
      9625        84  SAPC      H13S           27.0540154923       34.4276670128        5.9906903350  MEMB      84              0.0000000000
      9626        84  SAPC      C214           25.5059732190       35.8080549944        5.4552577722  MEMB      84              0.0000000000
      9627        84  SAPC      H14R           24.4336286628       35.9863078916        5.6234921098  MEMB      84              0.0000000000
      9628        84  SAPC      C215           26.0622577598       36.5010574310        4.4430046240  MEMB      84              0.0000000000
      9629        84  SAPC      H15R           25.4327462602       37.0641768600        3.7382985396  MEMB      84              0.0000000000
      9630        84  SAPC      C216           27.4907206658       36.6757785570        4.1555429660  MEMB      84              0.0000000000
      9631        84  SAPC      H16R           28.1544629283       36.7268981295        5.0450116041  MEMB      84              0.0000000000
      9632        84  SAPC      H16S           27.6025461513       37.7172203950        3.7851183947  MEMB      84              0.0000000000
      9633        84  SAPC      C217           28.2348047446       35.6724638580        3.2420429809  MEMB      84              0.0000000000
      9634        84  SAPC      H17R           28.0032496008       34.6392705050        3.5785162872  MEMB      84              0.0000000000
      9635        84  SAPC      H17S           29.3200497407       35.8926858112        3.1522289917  MEMB      84              0.0000000000
      9636        84  SAPC      C218           27.6336167871       35.7865332060        1.8377486963  MEMB      84              0.0000000000
      9637        84  SAPC      H18R           27.8608565802       36.8365985571        1.5548239026  MEMB      84              0.0000000000
      9638        84  SAPC      H18S           26.5261588343       35.7024735395        1.8658964592  MEMB      84              0.0000000000
      9639        84  SAPC      C219           28.1844475286       34.7126192557        0.9204219683  MEMB      84              0.0000000000
      9640        84  SAPC      H19R           27.9421580217       33.6780695404        1.2449589368  MEMB      84              0.0000000000
      9641        84  SAPC      H19S           29.2909679385       34.7014924087        0.8213776750  MEMB      84              0.0000000000
      9642        84  SAPC      C220           27.7512392156       34.8176415951       -0.5705594148  MEMB      84              0.0000000000
      9643        84  SAPC      H20R           27.4748793386       35.8760676221       -0.7646729320  MEMB      84              0.0000000000
      9644        84  SAPC      H20S           26.8982597633       34.1246626467       -0.7334315006  MEMB      84              0.0000000000
      9645        84  SAPC      H20T           28.5812372828       34.4255421045       -1.1964049131  MEMB      84              0.0000000000
      9646        84  SAPC      C33            24.4977218601       30.7731636784       15.6115518310  MEMB      84              0.0000000000
      9647        84  SAPC      H3X            24.2435755394       31.8487432607       15.4981525733  MEMB      84              0.0000000000
      9648        84  SAPC      H3Y            23.7466856149       30.2272427093       16.2216631967  MEMB      84              0.0000000000
      9649        84  SAPC      C34            24.4365253746       30.0361072878       14.2452919726  MEMB      84              0.0000000000
      9650        84  SAPC      H4X            24.7798728130       28.9845780200       14.3488266023  MEMB      84              0.0000000000
      9651        84  SAPC      H4Y            25.0381396493       30.4613260925       13.4136847223  MEMB      84              0.0000000000
      9652        84  SAPC      C35            22.9354558948       30.0577786915       13.5671519964  MEMB      84              0.0000000000
      9653        84  SAPC      H5X            22.0698861564       29.7508480477       14.1923743003  MEMB      84              0.0000000000
      9654        84  SAPC      H5Y            23.1031466652       29.3566768215       12.7217779679  MEMB      84              0.0000000000
      9655        84  SAPC      C36            22.4501288896       31.4320647111       12.9957203734  MEMB      84              0.0000000000
      9656        84  SAPC      H6X            23.1390031189       31.6470798984       12.1510064452  MEMB      84              0.0000000000
      9657        84  SAPC      H6Y            22.6005750001       32.1471853219       13.8325535984  MEMB      84              0.0000000000
      9658        84  SAPC      C37            20.9673774900       31.4965210951       12.5509190286  MEMB      84              0.0000000000
      9659        84  SAPC      H7X            20.2926628150       31.2045257705       13.3838774595  MEMB      84              0.0000000000
      9660        84  SAPC      H7Y            20.7338343295       30.7532302844       11.7588979943  MEMB      84              0.0000000000
      9661        84  SAPC      C38            20.6294077133       33.0297958246       12.1250224813  MEMB      84              0.0000000000
      9662        84  SAPC      H8X            21.1780151828       33.8323093160       12.6629098543  MEMB      84              0.0000000000
      9663        84  SAPC      H8Y            19.5282847603       33.1344056502       12.2294557438  MEMB      84              0.0000000000
      9664        84  SAPC      C39            21.1288987383       33.2884766546       10.6314311895  MEMB      84              0.0000000000
      9665        84  SAPC      H9X            22.1590288606       32.8724436222       10.6231045919  MEMB      84              0.0000000000
      9666        84  SAPC      H9Y            21.1565966730       34.3757671082       10.4048195538  MEMB      84              0.0000000000
      9667        84  SAPC      C310           20.1878910558       32.5611122726        9.6064387642  MEMB      84              0.0000000000
      9668        84  SAPC      H10X           19.1716697107       32.9069099325        9.8928632738  MEMB      84              0.0000000000
      9669        84  SAPC      H10Y           20.3100302856       31.4578434498        9.6533523241  MEMB      84              0.0000000000
      9670        84  SAPC      C311           20.5392654357       32.9587226135        8.2322793016  MEMB      84              0.0000000000
      9671        84  SAPC      H11X           21.6071497754       33.2086639861        8.0548726738  MEMB      84              0.0000000000
      9672        84  SAPC      H11Y           19.9354716784       33.8444332200        7.9402677789  MEMB      84              0.0000000000
      9673        84  SAPC      C312           20.2047764220       31.8666794011        7.2091499942  MEMB      84              0.0000000000
      9674        84  SAPC      H12X           19.2382234870       31.4082034663        7.5089756341  MEMB      84              0.0000000000
      9675        84  SAPC      H12Y           21.0029425681       31.1017887414        7.3195747522  MEMB      84              0.0000000000
      9676        84  SAPC      C313           20.1647399300       32.3673192565        5.7636734661  MEMB      84              0.0000000000
      9677        84  SAPC      H13X           19.8291101904       33.4260155695        5.7925854965  MEMB      84              0.0000000000
      9678        84  SAPC      H13Y           19.4446025552       31.7443623636        5.1912684221  MEMB      84              0.0000000000
      9679        84  SAPC      C314           21.3861200890       32.1797210608        4.8394919591  MEMB      84              0.0000000000
      9680        84  SAPC      H14X           21.6457765138       31.1006781195        4.7888353935  MEMB      84              0.0000000000
      9681        84  SAPC      H14Y           22.2180264240       32.7054066360        5.3551541491  MEMB      84              0.0000000000
      9682        84  SAPC      C315           21.1823599352       32.7073429706        3.3963135455  MEMB      84              0.0000000000
      9683        84  SAPC      H15X           21.0621443076       33.8054584955        3.5146829098  MEMB      84              0.0000000000
      9684        84  SAPC      H15Y           20.3922231896       32.2576702676        2.7577215221  MEMB      84              0.0000000000
      9685        84  SAPC      C316           22.3742721295       32.5602476020        2.4816657877  MEMB      84              0.0000000000
      9686        84  SAPC      H16X           22.2873972769       33.1618132193        1.5516706725  MEMB      84              0.0000000000
      9687        84  SAPC      H16Y           22.5144142074       31.5116882922        2.1422486623  MEMB      84              0.0000000000
      9688        84  SAPC      C317           23.6456193944       33.1652320070        3.0670948481  MEMB      84              0.0000000000
      9689        84  SAPC      H17X           23.8383443577       32.8756058036        4.1222227039  MEMB      84              0.0000000000
      9690        84  SAPC      H17Y           23.3713497877       34.2408217036        3.0201547908  MEMB      84              0.0000000000
      9691        84  SAPC      C318           24.9246882678       33.0184606180        2.2158297200  MEMB      84              0.0000000000
      9692        84  SAPC      H18X           25.8684558301       33.3841162693        2.6739999923  MEMB      84              0.0000000000
      9693        84  SAPC      H18Y           24.7348431612       33.5279131034        1.2469463795  MEMB      84              0.0000000000
      9694        84  SAPC      H18Z           25.0214222504       31.9450206004        1.9462189862  MEMB      84              0.0000000000
      9695        85  SAPE      N              26.9425217027      -29.1770825342       19.3869878528  MEMB      85              0.0000000000
      9696        85  SAPE      HN1            27.0266718569      -28.9743016133       20.4035499595  MEMB      85              0.0000000000
      9697        85  SAPE      HN2            26.1495145330      -28.6615741146       18.9545635417  MEMB      85              0.0000000000
      9698        85  SAPE      HN3            26.9679894455      -30.2129817278       19.2983050692  MEMB      85              0.0000000000
      9699        85  SAPE      C12            28.2298245801      -28.6485637045       18.7709481756  MEMB      85              0.0000000000
      9700        85  SAPE      H12A           28.0341441060      -28.8119243184       17.6895862507  MEMB      85              0.0000000000
      9701        85  SAPE      H12B           29.0302778994      -29.3192874378       19.1500591046  MEMB      85              0.0000000000
      9702        85  SAPE      C11            28.4652444273      -27.1254522349       18.9407312408  MEMB      85              0.0000000000
      9703        85  SAPE      H11A           27.5248414386      -26.5738395902       18.7269866066  MEMB      85              0.0000000000
      9704        85  SAPE      H11B           29.1486383360      -26.8562122375       18.1071824920  MEMB      85              0.0000000000
      9705        85  SAPE      P              30.3227789711      -26.9258430112       20.6588840711  MEMB      85              0.0000000000
      9706        85  SAPE      O13            30.5263520262      -27.0860457521       22.1377452720  MEMB      85              0.0000000000
      9707        85  SAPE      O14            30.8883557886      -28.0239815371       19.8173623752  MEMB      85              0.0000000000
      9708        85  SAPE      O12            28.7860259009      -26.8095646553       20.2307056060  MEMB      85              0.0000000000
      9709        85  SAPE      O11            30.9203086139      -25.5783148797       20.0566354035  MEMB      85              0.0000000000
      9710        85  SAPE      C1             30.6843195162      -24.3664925796       20.8639329074  MEMB      85              0.0000000000
      9711        85  SAPE      HA             29.6539204336      -24.2424141259       21.2604215119  MEMB      85              0.0000000000
      9712        85  SAPE      HB             31.5282417910      -24.3126077126       21.5844970407  MEMB      85              0.0000000000
      9713        85  SAPE      C2             30.9272716444      -23.1498991229       19.9082466222  MEMB      85              0.0000000000
      9714        85  SAPE      HS             30.3927704290      -22.2718867464       20.3298192171  MEMB      85              0.0000000000
      9715        85  SAPE      O21            30.5485567295      -23.4119456131       18.5544460040  MEMB      85              0.0000000000
      9716        85  SAPE      C21            29.2101798209      -23.3622710309       18.2397976650  MEMB      85              0.0000000000
      9717        85  SAPE      O22            28.3315460019      -23.1764343488       19.0281295194  MEMB      85              0.0000000000
      9718        85  SAPE      C22            28.9626139857      -23.7373137715       16.7936563095  MEMB      85              0.0000000000
      9719        85  SAPE      H2R            29.5857145992      -23.0327946686       16.2022855914  MEMB      85              0.0000000000
      9720        85  SAPE      H2S            29.2493909610      -24.7962696346       16.6184632567  MEMB      85              0.0000000000
      9721        85  SAPE      C3             32.4113642100      -22.7294046022       19.9473503122  MEMB      85              0.0000000000
      9722        85  SAPE      HX             32.4532010885      -22.2827680600       20.9637589772  MEMB      85              0.0000000000
      9723        85  SAPE      HY             32.5957640736      -21.9684685140       19.1591284085  MEMB      85              0.0000000000
      9724        85  SAPE      O31            33.3268274560      -23.8832748055       19.8380878860  MEMB      85              0.0000000000
      9725        85  SAPE      C31            33.4391298070      -24.3788272288       18.6326102150  MEMB      85              0.0000000000
      9726        85  SAPE      O32            33.0231028797      -23.8333257278       17.6208536730  MEMB      85              0.0000000000
      9727        85  SAPE      C32            34.0900772732      -25.7725316041       18.6271932222  MEMB      85              0.0000000000
      9728        85  SAPE      H2X            33.3956942274      -26.4409166709       19.1798369415  MEMB      85              0.0000000000
      9729        85  SAPE      H2Y            35.0327483658      -25.6200135736       19.1950226730  MEMB      85              0.0000000000
      9730        85  SAPE      C23            27.4585287494      -23.3478796403       16.4022545889  MEMB      85              0.0000000000
      9731        85  SAPE      H3R            27.2207225462      -22.3823755378       16.8978059556  MEMB      85              0.0000000000
      9732        85  SAPE      H3S            26.7678123807      -24.1639298186       16.7044037946  MEMB      85              0.0000000000
      9733        85  SAPE      C24            27.2662878105      -23.2255120963       14.7981811780  MEMB      85              0.0000000000
      9734        85  SAPE      H4R            28.0195597322      -22.4672726438       14.4949068986  MEMB      85              0.0000000000
      9735        85  SAPE      H4S            26.2262579786      -22.9245155380       14.5490628143  MEMB      85              0.0000000000
      9736        85  SAPE      C25            27.6162402418      -24.5834591785       14.1059532686  MEMB      85              0.0000000000
      9737        85  SAPE      H5R            28.5669799189      -25.0643710470       14.3794816787  MEMB      85              0.0000000000
      9738        85  SAPE      C26            26.7978967320      -25.1700725242       13.2557517795  MEMB      85              0.0000000000
      9739        85  SAPE      H6R            27.1088497818      -26.1640201490       12.9016667929  MEMB      85              0.0000000000
      9740        85  SAPE      C27            25.4386351445      -24.7966609491       12.7275088684  MEMB      85              0.0000000000
      9741        85  SAPE      H7R            25.5937856012      -23.7509802493       12.3857477960  MEMB      85              0.0000000000
      9742        85  SAPE      H7S            24.6754191574      -24.8480111842       13.5332294089  MEMB      85              0.0000000000
      9743        85  SAPE      C28            24.7659334826      -25.4438985834       11.5324003046  MEMB      85              0.0000000000
      9744        85  SAPE      H8R            23.7655366367      -25.8774539004       11.6781250579  MEMB      85              0.0000000000
      9745        85  SAPE      C29            25.1303746435      -25.3231175526       10.2275906274  MEMB      85              0.0000000000
      9746        85  SAPE      H9R            24.8513687210      -26.1636161806        9.5751203455  MEMB      85              0.0000000000
      9747        85  SAPE      C210           26.2778640446      -24.5782482230        9.5360993732  MEMB      85              0.0000000000
      9748        85  SAPE      H10R           26.5439128936      -23.5417708237        9.8348526097  MEMB      85              0.0000000000
      9749        85  SAPE      H10S           25.9047778594      -24.4154791747        8.5023519880  MEMB      85              0.0000000000
      9750        85  SAPE      C211           27.5633853643      -25.4424620420        9.5482884905  MEMB      85              0.0000000000
      9751        85  SAPE      H11R           27.3042689346      -26.4909131506        9.3394604065  MEMB      85              0.0000000000
      9752        85  SAPE      C212           28.8316205171      -25.1199021628        9.9100293871  MEMB      85              0.0000000000
      9753        85  SAPE      H12R           29.5897419423      -25.8800772096        9.6704760959  MEMB      85              0.0000000000
      9754        85  SAPE      C213           29.2262289833      -23.7539766778       10.4129517122  MEMB      85              0.0000000000
      9755        85  SAPE      H13R           29.1652782054      -23.7114705484       11.5214639795  MEMB      85              0.0000000000
      9756        85  SAPE      H13S           28.6056314208      -22.8861345103       10.1030642345  MEMB      85              0.0000000000
      9757        85  SAPE      C214           30.6725114063      -23.7455706099       10.1863934684  MEMB      85              0.0000000000
      9758        85  SAPE      H14R           31.2911638189      -24.4316130121       10.7835659199  MEMB      85              0.0000000000
      9759        85  SAPE      C215           31.2806798479      -22.9569813690        9.2420353481  MEMB      85              0.0000000000
      9760        85  SAPE      H15R           32.3299756519      -23.1653853216        8.9860149785  MEMB      85              0.0000000000
      9761        85  SAPE      C216           30.5732246346      -21.9531611436        8.3020723742  MEMB      85              0.0000000000
      9762        85  SAPE      H16R           30.8693091333      -20.9185710632        8.5782581221  MEMB      85              0.0000000000
      9763        85  SAPE      H16S           29.4726793509      -22.0917678324        8.3645975515  MEMB      85              0.0000000000
      9764        85  SAPE      C217           31.1280278530      -22.0736525401        6.8903219594  MEMB      85              0.0000000000
      9765        85  SAPE      H17R           31.2899650027      -23.1428516546        6.6355467016  MEMB      85              0.0000000000
      9766        85  SAPE      H17S           32.1004730824      -21.5407262421        6.9585933365  MEMB      85              0.0000000000
      9767        85  SAPE      C218           30.1852930426      -21.5310989422        5.9039269831  MEMB      85              0.0000000000
      9768        85  SAPE      H18R           29.9976973165      -20.4967157900        6.2633437638  MEMB      85              0.0000000000
      9769        85  SAPE      H18S           29.2691351194      -22.1558288857        5.8354535268  MEMB      85              0.0000000000
      9770        85  SAPE      C219           30.8038571755      -21.4715322038        4.5218149537  MEMB      85              0.0000000000
      9771        85  SAPE      H19R           30.9989805291      -22.5097059266        4.1776581937  MEMB      85              0.0000000000
      9772        85  SAPE      H19S           31.7747396281      -20.9540270834        4.6763992467  MEMB      85              0.0000000000
      9773        85  SAPE      C220           29.8981585809      -20.7720734993        3.5722870323  MEMB      85              0.0000000000
      9774        85  SAPE      H20R           30.3047201877      -20.8463220054        2.5410180223  MEMB      85              0.0000000000
      9775        85  SAPE      H20S           29.8872569145      -19.6761088062        3.7541197136  MEMB      85              0.0000000000
      9776        85  SAPE      H20T           28.8581175994      -21.1570930514        3.6385881452  MEMB      85              0.0000000000
      9777        85  SAPE      C33            34.1221814710      -26.3613111780       17.2006808364  MEMB      85              0.0000000000
      9778        85  SAPE      H3X            34.9400934864      -27.1035486246       17.0805786034  MEMB      85              0.0000000000
      9779        85  SAPE      H3Y            34.4725574331      -25.6076962829       16.4633733161  MEMB      85              0.0000000000
      9780        85  SAPE      C34            32.7430362689      -26.9954801234       16.9797779932  MEMB      85              0.0000000000
      9781        85  SAPE      H4X            31.9441148826      -26.2234452675       16.9770241098  MEMB      85              0.0000000000
      9782        85  SAPE      H4Y            32.6438323774      -27.6587911865       17.8654969047  MEMB      85              0.0000000000
      9783        85  SAPE      C35            32.5104661365      -27.7379568568       15.6938942887  MEMB      85              0.0000000000
      9784        85  SAPE      H5X            33.2893635124      -28.4938570409       15.4567130447  MEMB      85              0.0000000000
      9785        85  SAPE      H5Y            32.4864546040      -27.0137637892       14.8517013200  MEMB      85              0.0000000000
      9786        85  SAPE      C36            31.1790192996      -28.4771692716       15.7647402074  MEMB      85              0.0000000000
      9787        85  SAPE      H6X            30.4123844961      -27.8000601462       16.1984627962  MEMB      85              0.0000000000
      9788        85  SAPE      H6Y            31.2443692311      -29.2741164356       16.5360546769  MEMB      85              0.0000000000
      9789        85  SAPE      C37            30.6650359355      -29.0411835670       14.4874577387  MEMB      85              0.0000000000
      9790        85  SAPE      H7X            29.6470785166      -29.4433881078       14.6780228105  MEMB      85              0.0000000000
      9791        85  SAPE      H7Y            31.2911008991      -29.8914618345       14.1419279070  MEMB      85              0.0000000000
      9792        85  SAPE      C38            30.2977439505      -28.0583089797       13.3433033822  MEMB      85              0.0000000000
      9793        85  SAPE      H8X            31.1859814384      -27.4197893236       13.1492728185  MEMB      85              0.0000000000
      9794        85  SAPE      H8Y            29.5579286527      -27.3391797471       13.7554289474  MEMB      85              0.0000000000
      9795        85  SAPE      C39            29.9040937852      -28.6250327889       11.9749737278  MEMB      85              0.0000000000
      9796        85  SAPE      H9X            29.7353774909      -27.7767037953       11.2776973242  MEMB      85              0.0000000000
      9797        85  SAPE      H9Y            28.9253690191      -29.1452880927       12.0508238822  MEMB      85              0.0000000000
      9798        85  SAPE      C310           30.9418951229      -29.6030634879       11.3866780227  MEMB      85              0.0000000000
      9799        85  SAPE      H10X           31.1312112637      -30.3944803479       12.1430778555  MEMB      85              0.0000000000
      9800        85  SAPE      H10Y           31.8324454160      -29.0820901752       10.9745760222  MEMB      85              0.0000000000
      9801        85  SAPE      C311           30.4423127241      -30.2959994061       10.0846207691  MEMB      85              0.0000000000
      9802        85  SAPE      H11X           29.4511692477      -30.7070459355       10.3727112189  MEMB      85              0.0000000000
      9803        85  SAPE      H11Y           31.0401439471      -31.2232186816        9.9535338076  MEMB      85              0.0000000000
      9804        85  SAPE      C312           30.5570307778      -29.3535527443        8.8123134975  MEMB      85              0.0000000000
      9805        85  SAPE      H12X           31.5607704946      -29.5086858540        8.3620231361  MEMB      85              0.0000000000
      9806        85  SAPE      H12Y           30.4381188630      -28.3508213521        9.2756821277  MEMB      85              0.0000000000
      9807        85  SAPE      C313           29.4986366158      -29.5706564447        7.7520955502  MEMB      85              0.0000000000
      9808        85  SAPE      H13X           28.4361768491      -29.4418620107        8.0502774085  MEMB      85              0.0000000000
      9809        85  SAPE      H13Y           29.6528501064      -30.5901105165        7.3382687074  MEMB      85              0.0000000000
      9810        85  SAPE      C314           29.8221773190      -28.6858497165        6.5942370805  MEMB      85              0.0000000000
      9811        85  SAPE      H14X           30.7850183398      -28.9192663497        6.0914700341  MEMB      85              0.0000000000
      9812        85  SAPE      H14Y           29.7500959075      -27.6622506584        7.0201124503  MEMB      85              0.0000000000
      9813        85  SAPE      C315           28.6862589458      -28.7811921598        5.4936814923  MEMB      85              0.0000000000
      9814        85  SAPE      H15X           27.7814248603      -28.4424476089        6.0421774332  MEMB      85              0.0000000000
      9815        85  SAPE      H15Y           28.5528314152      -29.8506328493        5.2238386707  MEMB      85              0.0000000000
      9816        85  SAPE      C316           28.7062514486      -27.9664290393        4.2106639923  MEMB      85              0.0000000000
      9817        85  SAPE      H16X           27.7592350464      -28.0586442655        3.6370986365  MEMB      85              0.0000000000
      9818        85  SAPE      H16Y           29.5646139464      -28.3686189342        3.6312005251  MEMB      85              0.0000000000
      9819        85  SAPE      C317           28.9414769045      -26.3631813609        4.3762839443  MEMB      85              0.0000000000
      9820        85  SAPE      H17X           29.9099102399      -26.3125802847        4.9184062899  MEMB      85              0.0000000000
      9821        85  SAPE      H17Y           28.2035260263      -25.9385336508        5.0900234898  MEMB      85              0.0000000000
      9822        85  SAPE      C318           28.7849631329      -25.4650813456        3.1269416277  MEMB      85              0.0000000000
      9823        85  SAPE      H18X           29.5853347516      -25.5513623654        2.3612519114  MEMB      85              0.0000000000
      9824        85  SAPE      H18Y           29.0037335437      -24.4023361059        3.3657575258  MEMB      85              0.0000000000
      9825        85  SAPE      H18Z           27.7492079271      -25.6497714621        2.7699811896  MEMB      85              0.0000000000
      9826        86  CHL1      C3            -25.0198596598       32.1261703852       17.3600200000  MEMB      86              0.0000000000
      9827        86  CHL1      H3            -25.5133135624       33.1166686110       17.4587700000  MEMB      86              0.0000000000
      9828        86  CHL1      O3            -24.5978501402       31.6423878148       18.6399800000  MEMB      86              0.0000000000
      9829        86  CHL1      H3'           -25.3876234424       31.6506683037       19.1856800000  MEMB      86              0.0000000000
      9830        86  CHL1      C4            -26.0007483674       31.1547401952       16.8893300000  MEMB      86              0.0000000000
      9831        86  CHL1      H4A           -25.6925839626       30.0891729153       16.9521000000  MEMB      86              0.0000000000
      9832        86  CHL1      H4B           -26.8442936642       31.2135225870       17.6099500000  MEMB      86              0.0000000000
      9833        86  CHL1      C5            -26.3825693099       31.5201278080       15.4605600000  MEMB      86              0.0000000000
      9834        86  CHL1      C6            -27.6976059343       31.8301661395       15.2589500000  MEMB      86              0.0000000000
      9835        86  CHL1      H6            -28.4885484300       31.6162403742       15.9928800000  MEMB      86              0.0000000000
      9836        86  CHL1      C7            -28.2284604671       32.3064831562       13.9358700000  MEMB      86              0.0000000000
      9837        86  CHL1      H7A           -29.2150497544       31.8071078770       13.8282500000  MEMB      86              0.0000000000
      9838        86  CHL1      H7B           -28.3612818334       33.4065901312       13.8555000000  MEMB      86              0.0000000000
      9839        86  CHL1      C8            -27.2338797982       31.9992148567       12.7471200000  MEMB      86              0.0000000000
      9840        86  CHL1      H8            -27.3027851293       30.9002611713       12.5991900000  MEMB      86              0.0000000000
      9841        86  CHL1      C14           -27.6511787541       32.7657288132       11.4817100000  MEMB      86              0.0000000000
      9842        86  CHL1      H14           -27.4968139453       33.8257065846       11.7765500000  MEMB      86              0.0000000000
      9843        86  CHL1      C15           -29.0553813853       32.6533635357       10.9296500000  MEMB      86              0.0000000000
      9844        86  CHL1      H15A          -29.4241751174       31.6178124733       11.0906900000  MEMB      86              0.0000000000
      9845        86  CHL1      H15B          -29.6911860105       33.4348255018       11.3980500000  MEMB      86              0.0000000000
      9846        86  CHL1      C16           -29.0005487528       32.9462468485        9.4280900000  MEMB      86              0.0000000000
      9847        86  CHL1      H16A          -29.4344743534       32.0392673993        8.9554300000  MEMB      86              0.0000000000
      9848        86  CHL1      H16B          -29.6762157132       33.7889224669        9.1678700000  MEMB      86              0.0000000000
      9849        86  CHL1      C17           -27.4918871135       33.1322975480        9.1124300000  MEMB      86              0.0000000000
      9850        86  CHL1      H17           -27.3087081244       34.2260179558        9.1797100000  MEMB      86              0.0000000000
      9851        86  CHL1      C13           -26.7366996651       32.4437876343       10.2399600000  MEMB      86              0.0000000000
      9852        86  CHL1      C18           -26.7043908791       30.9788603403        9.9136800000  MEMB      86              0.0000000000
      9853        86  CHL1      H18A          -25.9451999917       30.7305707993        9.1414700000  MEMB      86              0.0000000000
      9854        86  CHL1      H18B          -26.4904874746       30.2923735209       10.7606100000  MEMB      86              0.0000000000
      9855        86  CHL1      H18C          -27.6481577704       30.6968326822        9.3997800000  MEMB      86              0.0000000000
      9856        86  CHL1      C12           -25.2818930513       32.8024582661       10.6268400000  MEMB      86              0.0000000000
      9857        86  CHL1      H12A          -24.6043446005       32.3529915756        9.8697200000  MEMB      86              0.0000000000
      9858        86  CHL1      H12B          -25.2481313141       33.8917460159       10.8428100000  MEMB      86              0.0000000000
      9859        86  CHL1      C11           -24.8697157036       32.0814634125       11.9340900000  MEMB      86              0.0000000000
      9860        86  CHL1      H11A          -24.6116750933       31.0257553727       11.7034000000  MEMB      86              0.0000000000
      9861        86  CHL1      H11B          -23.9193186434       32.5009295552       12.3279500000  MEMB      86              0.0000000000
      9862        86  CHL1      C9            -25.7900094363       32.3053645193       13.1468100000  MEMB      86              0.0000000000
      9863        86  CHL1      H9            -25.7046778369       33.3993379728       13.3207500000  MEMB      86              0.0000000000
      9864        86  CHL1      C10           -25.2307169486       31.6297963365       14.5093800000  MEMB      86              0.0000000000
      9865        86  CHL1      C19           -24.5705617610       30.3123570994       14.2793100000  MEMB      86              0.0000000000
      9866        86  CHL1      H19A          -24.3251608727       29.7790776659       15.2225500000  MEMB      86              0.0000000000
      9867        86  CHL1      H19B          -25.2555275301       29.6668786919       13.6889700000  MEMB      86              0.0000000000
      9868        86  CHL1      H19C          -23.6589648249       30.4509915338       13.6595600000  MEMB      86              0.0000000000
      9869        86  CHL1      C1            -24.2030077453       32.6201463728       15.0881400000  MEMB      86              0.0000000000
      9870        86  CHL1      H1A           -23.3315500974       32.7615578632       14.4136900000  MEMB      86              0.0000000000
      9871        86  CHL1      H1B           -24.6975081539       33.6076341791       15.2092500000  MEMB      86              0.0000000000
      9872        86  CHL1      C2            -23.8147821116       32.2718261332       16.4803300000  MEMB      86              0.0000000000
      9873        86  CHL1      H2A           -23.1391899767       32.9624772701       17.0288500000  MEMB      86              0.0000000000
      9874        86  CHL1      H2B           -23.2980243760       31.2959952988       16.3576400000  MEMB      86              0.0000000000
      9875        86  CHL1      C20           -27.2991800227       32.8471245598        7.5848200000  MEMB      86              0.0000000000
      9876        86  CHL1      H20           -27.3495115651       31.7465586473        7.4414800000  MEMB      86              0.0000000000
      9877        86  CHL1      C21           -25.8491531846       33.1714271782        7.2521000000  MEMB      86              0.0000000000
      9878        86  CHL1      H21A          -25.1354698058       32.9840652521        8.0826800000  MEMB      86              0.0000000000
      9879        86  CHL1      H21B          -25.8107072677       34.2505742742        6.9908000000  MEMB      86              0.0000000000
      9880        86  CHL1      H21C          -25.5715907092       32.6763426241        6.2970200000  MEMB      86              0.0000000000
      9881        86  CHL1      C22           -28.4095669957       33.3986156972        6.6998200000  MEMB      86              0.0000000000
      9882        86  CHL1      H22A          -29.3943057520       33.0417365763        7.0702900000  MEMB      86              0.0000000000
      9883        86  CHL1      H22B          -28.4520048059       34.5074042439        6.7555200000  MEMB      86              0.0000000000
      9884        86  CHL1      C23           -28.1581165151       33.0359268981        5.2364700000  MEMB      86              0.0000000000
      9885        86  CHL1      H23A          -27.4084475866       33.7431085873        4.8214800000  MEMB      86              0.0000000000
      9886        86  CHL1      H23B          -27.6539757758       32.0459679534        5.2482800000  MEMB      86              0.0000000000
      9887        86  CHL1      C24           -29.3695510097       33.1165575168        4.2497400000  MEMB      86              0.0000000000
      9888        86  CHL1      H24A          -30.0046120869       32.2939329133        4.6425800000  MEMB      86              0.0000000000
      9889        86  CHL1      H24B          -29.9476169524       34.0417210606        4.4600600000  MEMB      86              0.0000000000
      9890        86  CHL1      C25           -29.0715762704       32.9645012875        2.7878600000  MEMB      86              0.0000000000
      9891        86  CHL1      H25           -28.8920625007       33.9872477567        2.3927900000  MEMB      86              0.0000000000
      9892        86  CHL1      C26           -27.8654432158       32.1480775544        2.4842500000  MEMB      86              0.0000000000
      9893        86  CHL1      H26A          -27.6444929750       32.0237696159        1.4025600000  MEMB      86              0.0000000000
      9894        86  CHL1      H26B          -26.9767800901       32.6445296559        2.9293700000  MEMB      86              0.0000000000
      9895        86  CHL1      H26C          -27.9109405895       31.1462752253        2.9624100000  MEMB      86              0.0000000000
      9896        86  CHL1      C27           -30.3171337665       32.4263154920        2.0016600000  MEMB      86              0.0000000000
      9897        86  CHL1      H27A          -30.0261172655       32.2255081620        0.9484200000  MEMB      86              0.0000000000
      9898        86  CHL1      H27B          -30.5129238496       31.4221250278        2.4347700000  MEMB      86              0.0000000000
      9899        86  CHL1      H27C          -31.2432259230       33.0398579760        1.9862100000  MEMB      86              0.0000000000
      9900        87  SAPS      N              29.5536155892       28.5276235126       22.6768735176  MEMB      87              0.0000000000
      9901        87  SAPS      HN1            30.3436679234       29.0494906637       23.1070735389  MEMB      87              0.0000000000
      9902        87  SAPS      HN2            28.7259019632       28.7921940811       23.2482688896  MEMB      87              0.0000000000
      9903        87  SAPS      HN3            29.7204706038       27.5106598896       22.8166744326  MEMB      87              0.0000000000
      9904        87  SAPS      C12            29.5326259613       28.7523189767       21.2870773808  MEMB      87              0.0000000000
      9905        87  SAPS      H12A           30.2691888471       29.5336124095       21.1710786659  MEMB      87              0.0000000000
      9906        87  SAPS      C13            29.8445393543       27.5823244931       20.3549911000  MEMB      87              0.0000000000
      9907        87  SAPS      O13A           29.8876178483       26.4655514416       20.9251231229  MEMB      87              0.0000000000
      9908        87  SAPS      O13B           30.3283605919       27.8148044373       19.2294301082  MEMB      87              0.0000000000
      9909        87  SAPS      C11            28.1347983416       29.3218500759       20.9935406732  MEMB      87              0.0000000000
      9910        87  SAPS      H11A           28.0044590871       30.2616624994       21.5715418326  MEMB      87              0.0000000000
      9911        87  SAPS      H11B           27.4482929027       28.5431444104       21.3893294534  MEMB      87              0.0000000000
      9912        87  SAPS      P              26.8241297583       30.1396207903       18.9396434476  MEMB      87              0.0000000000
      9913        87  SAPS      O13            25.7525518008       29.0782605488       19.0434361434  MEMB      87              0.0000000000
      9914        87  SAPS      O14            26.5701215054       31.4885645010       19.4690339036  MEMB      87              0.0000000000
      9915        87  SAPS      O12            28.0716252235       29.6055417898       19.6117080284  MEMB      87              0.0000000000
      9916        87  SAPS      O11            27.3738070262       30.2655451365       17.4691426123  MEMB      87              0.0000000000
      9917        87  SAPS      C1             28.5832522314       31.0038921784       17.1766802773  MEMB      87              0.0000000000
      9918        87  SAPS      HA             28.4139513967       32.0978961011       17.0827984478  MEMB      87              0.0000000000
      9919        87  SAPS      HB             29.3435493590       30.8521142858       17.9724392875  MEMB      87              0.0000000000
      9920        87  SAPS      C2             29.2685876929       30.4921048152       15.8631397631  MEMB      87              0.0000000000
      9921        87  SAPS      HS             30.1854204414       31.0868650195       15.6631416369  MEMB      87              0.0000000000
      9922        87  SAPS      O21            28.3120345746       30.3369140991       14.8175636742  MEMB      87              0.0000000000
      9923        87  SAPS      C21            28.0601373569       31.4331871106       14.2021883827  MEMB      87              0.0000000000
      9924        87  SAPS      O22            28.6202383128       32.5287323075       14.4078346641  MEMB      87              0.0000000000
      9925        87  SAPS      C22            26.9144832548       31.2447942122       13.1904160955  MEMB      87              0.0000000000
      9926        87  SAPS      H2R            25.9730396245       30.8700695469       13.6460326185  MEMB      87              0.0000000000
      9927        87  SAPS      H2S            26.8306631830       32.2246262401       12.6734784338  MEMB      87              0.0000000000
      9928        87  SAPS      C3             29.8409523011       29.1028641526       16.0827734434  MEMB      87              0.0000000000
      9929        87  SAPS      HX             29.0244294277       28.3714245765       16.2633488013  MEMB      87              0.0000000000
      9930        87  SAPS      HY             30.4356460035       29.1364904745       17.0206057985  MEMB      87              0.0000000000
      9931        87  SAPS      O31            30.6559003073       28.7452986556       14.9780323965  MEMB      87              0.0000000000
      9932        87  SAPS      C31            30.1647603211       28.0386616558       13.9881193406  MEMB      87              0.0000000000
      9933        87  SAPS      O32            29.0492670013       27.5514567484       13.9910999571  MEMB      87              0.0000000000
      9934        87  SAPS      C32            31.1222246380       28.1370872508       12.7458346118  MEMB      87              0.0000000000
      9935        87  SAPS      H2X            32.0815395764       27.6148076762       12.9489595397  MEMB      87              0.0000000000
      9936        87  SAPS      H2Y            31.3881172522       29.2016775911       12.5718529683  MEMB      87              0.0000000000
      9937        87  SAPS      C23            27.4777623064       30.3740289041       12.1244712497  MEMB      87              0.0000000000
      9938        87  SAPS      H3R            27.6399556589       29.3452566353       12.5113071512  MEMB      87              0.0000000000
      9939        87  SAPS      H3S            28.5073700900       30.6609978630       11.8213581180  MEMB      87              0.0000000000
      9940        87  SAPS      C24            26.6481520663       30.2399842357       10.8475910137  MEMB      87              0.0000000000
      9941        87  SAPS      H4R            25.6203222060       29.8732894002       11.0559698297  MEMB      87              0.0000000000
      9942        87  SAPS      H4S            27.0982578157       29.4413255737       10.2200000254  MEMB      87              0.0000000000
      9943        87  SAPS      C25            26.6069643403       31.4846123991       10.0825078646  MEMB      87              0.0000000000
      9944        87  SAPS      H5R            27.5007001214       32.1192124826       10.1748072953  MEMB      87              0.0000000000
      9945        87  SAPS      C26            25.7048913694       31.8958671935        9.1869219994  MEMB      87              0.0000000000
      9946        87  SAPS      H6R            25.9911587685       32.8381894669        8.6969420762  MEMB      87              0.0000000000
      9947        87  SAPS      C27            24.4218324700       31.1598267282        8.6632020865  MEMB      87              0.0000000000
      9948        87  SAPS      H7R            23.5507720942       31.6994994120        9.0925363285  MEMB      87              0.0000000000
      9949        87  SAPS      H7S            24.4318303370       30.0877109041        8.9543864104  MEMB      87              0.0000000000
      9950        87  SAPS      C28            24.2895584853       31.3784727570        7.2335942287  MEMB      87              0.0000000000
      9951        87  SAPS      H8R            23.7179603118       32.3002789844        7.0504328686  MEMB      87              0.0000000000
      9952        87  SAPS      C29            24.7060213367       30.6669788574        6.1759943837  MEMB      87              0.0000000000
      9953        87  SAPS      H9R            24.3277792817       31.0719403077        5.2257638822  MEMB      87              0.0000000000
      9954        87  SAPS      C210           25.4541097513       29.3665920320        6.1781689747  MEMB      87              0.0000000000
      9955        87  SAPS      H10R           26.4649497243       29.3928511868        6.6384233298  MEMB      87              0.0000000000
      9956        87  SAPS      H10S           25.6304660770       29.0728477080        5.1213182067  MEMB      87              0.0000000000
      9957        87  SAPS      C211           24.7216514976       28.1865140785        6.6671734633  MEMB      87              0.0000000000
      9958        87  SAPS      H11R           23.6417865718       28.1020995316        6.4754276901  MEMB      87              0.0000000000
      9959        87  SAPS      C212           25.2559449499       27.2102993916        7.3169232670  MEMB      87              0.0000000000
      9960        87  SAPS      H12R           24.5168009269       26.4756825670        7.6690652228  MEMB      87              0.0000000000
      9961        87  SAPS      C213           26.6494276630       26.8670026201        7.8621937250  MEMB      87              0.0000000000
      9962        87  SAPS      H13R           26.5211093570       26.5766900952        8.9268882116  MEMB      87              0.0000000000
      9963        87  SAPS      H13S           27.3585866014       27.7176983535        7.7742674782  MEMB      87              0.0000000000
      9964        87  SAPS      C214           27.3070550365       25.7892551759        7.0452836018  MEMB      87              0.0000000000
      9965        87  SAPS      H14R           26.9696230115       24.7693098167        7.2816119935  MEMB      87              0.0000000000
      9966        87  SAPS      C215           28.2601263962       25.8903229094        6.0455308393  MEMB      87              0.0000000000
      9967        87  SAPS      H15R           28.7489765368       24.9911468734        5.6424079870  MEMB      87              0.0000000000
      9968        87  SAPS      C216           28.7583570726       27.2261418089        5.5933819661  MEMB      87              0.0000000000
      9969        87  SAPS      H16R           29.6973679261       27.4188360400        6.1550301887  MEMB      87              0.0000000000
      9970        87  SAPS      H16S           28.1923307574       28.1464211896        5.8522667621  MEMB      87              0.0000000000
      9971        87  SAPS      C217           29.1796801638       27.3173978135        4.0914699973  MEMB      87              0.0000000000
      9972        87  SAPS      H17R           29.9438725540       26.5566047575        3.8240294407  MEMB      87              0.0000000000
      9973        87  SAPS      H17S           29.7655623040       28.2483675089        3.9353979959  MEMB      87              0.0000000000
      9974        87  SAPS      C218           27.9315419662       27.3915394185        3.1722817218  MEMB      87              0.0000000000
      9975        87  SAPS      H18R           27.2699120623       28.2427461976        3.4406358120  MEMB      87              0.0000000000
      9976        87  SAPS      H18S           27.4006441248       26.4183152533        3.2451057394  MEMB      87              0.0000000000
      9977        87  SAPS      C219           28.3300879529       27.7074445951        1.7541198376  MEMB      87              0.0000000000
      9978        87  SAPS      H19R           29.0655168929       28.5388380037        1.8015562304  MEMB      87              0.0000000000
      9979        87  SAPS      H19S           27.4156471743       28.0007558530        1.1954723478  MEMB      87              0.0000000000
      9980        87  SAPS      C220           29.0280073881       26.5098248237        0.9798457161  MEMB      87              0.0000000000
      9981        87  SAPS      H20R           28.4169313984       25.5963789779        1.1427075051  MEMB      87              0.0000000000
      9982        87  SAPS      H20S           30.0367619333       26.2850980870        1.3875615272  MEMB      87              0.0000000000
      9983        87  SAPS      H20T           29.2094024758       26.7679462771       -0.0854191117  MEMB      87              0.0000000000
      9984        87  SAPS      C33            30.3652125520       27.5029046687       11.5863819337  MEMB      87              0.0000000000
      9985        87  SAPS      H3X            29.4850334920       28.1522767572       11.3916472607  MEMB      87              0.0000000000
      9986        87  SAPS      H3Y            29.9992233449       26.5206477023       11.9545454445  MEMB      87              0.0000000000
      9987        87  SAPS      C34            31.1762275627       27.4674337909       10.3041463502  MEMB      87              0.0000000000
      9988        87  SAPS      H4X            30.6356216138       26.7926450332        9.6064882242  MEMB      87              0.0000000000
      9989        87  SAPS      H4Y            32.1112426515       26.9367257262       10.5841764684  MEMB      87              0.0000000000
      9990        87  SAPS      C35            31.4240402566       28.9276998013        9.7182415117  MEMB      87              0.0000000000
      9991        87  SAPS      H5X            31.9928683418       28.7318756136        8.7842135452  MEMB      87              0.0000000000
      9992        87  SAPS      H5Y            32.1044172858       29.2933128442       10.5168239481  MEMB      87              0.0000000000
      9993        87  SAPS      C36            30.2361242356       29.7918348801        9.4233104031  MEMB      87              0.0000000000
      9994        87  SAPS      H6X            29.8409605161       30.3322802318       10.3099245693  MEMB      87              0.0000000000
      9995        87  SAPS      H6Y            29.2946603140       29.2801252032        9.1298480395  MEMB      87              0.0000000000
      9996        87  SAPS      C37            30.6292043453       30.7196595492        8.2341773799  MEMB      87              0.0000000000
      9997        87  SAPS      H7X            30.8144715866       30.0284638706        7.3843266671  MEMB      87              0.0000000000
      9998        87  SAPS      H7Y            31.6164714426       31.2002941570        8.4033379040  MEMB      87              0.0000000000
      9999        87  SAPS      C38            29.5113090703       31.7773610033        7.9728071121  MEMB      87              0.0000000000
     10000        87  SAPS      H8X            29.4334862568       32.4671067799        8.8402836068  MEMB      87              0.0000000000
     10001        87  SAPS      H8Y            28.5921184469       31.2191049973        7.6939533928  MEMB      87              0.0000000000
     10002        87  SAPS      C39            29.9469458296       32.8011385319        6.8461638759  MEMB      87              0.0000000000
     10003        87  SAPS      H9X            30.4906125083       32.3089623322        6.0115919769  MEMB      87              0.0000000000
     10004        87  SAPS      H9Y            30.6014079196       33.6287662917        7.1940608920  MEMB      87              0.0000000000
     10005        87  SAPS      C310           28.6624060235       33.4490979679        6.2283596838  MEMB      87              0.0000000000
     10006        87  SAPS      H10X           28.0636395705       34.0105268538        6.9770896612  MEMB      87              0.0000000000
     10007        87  SAPS      H10Y           27.9724759290       32.6485234683        5.8857262561  MEMB      87              0.0000000000
     10008        87  SAPS      C311           29.0927563955       34.4595062581        5.0762238851  MEMB      87              0.0000000000
     10009        87  SAPS      H11X           29.5426471954       33.9145499522        4.2189360164  MEMB      87              0.0000000000
     10010        87  SAPS      H11Y           29.8590407214       35.1283388876        5.5232039741  MEMB      87              0.0000000000
     10011        87  SAPS      C312           27.9335803900       35.2289348724        4.5017990130  MEMB      87              0.0000000000
     10012        87  SAPS      H12X           28.4039785102       35.7828991651        3.6614593396  MEMB      87              0.0000000000
     10013        87  SAPS      H12Y           27.4696214966       36.0335001822        5.1115013125  MEMB      87              0.0000000000
     10014        87  SAPS      C313           26.7896904314       34.5045672541        3.7662509451  MEMB      87              0.0000000000
     10015        87  SAPS      H13X           26.3290348900       35.2776235654        3.1147125830  MEMB      87              0.0000000000
     10016        87  SAPS      H13Y           26.0087619980       34.2337247349        4.5086227067  MEMB      87              0.0000000000
     10017        87  SAPS      C314           27.0167974777       33.3526320528        2.8618197114  MEMB      87              0.0000000000
     10018        87  SAPS      H14X           27.6319652903       32.6017415133        3.4022380497  MEMB      87              0.0000000000
     10019        87  SAPS      H14Y           27.5642357932       33.6099628696        1.9299333080  MEMB      87              0.0000000000
     10020        87  SAPS      C315           25.6749900527       32.5982985925        2.6979211233  MEMB      87              0.0000000000
     10021        87  SAPS      H15X           24.8703687592       33.3177869852        2.4347818446  MEMB      87              0.0000000000
     10022        87  SAPS      H15Y           25.3748373810       32.3591419434        3.7405299505  MEMB      87              0.0000000000
     10023        87  SAPS      C316           25.6965262132       31.3011117951        1.8636782896  MEMB      87              0.0000000000
     10024        87  SAPS      H16X           26.3417340391       30.5495742849        2.3668876404  MEMB      87              0.0000000000
     10025        87  SAPS      H16Y           26.1954463009       31.3959432060        0.8755451413  MEMB      87              0.0000000000
     10026        87  SAPS      C317           24.3361117680       30.8618000232        1.4066948633  MEMB      87              0.0000000000
     10027        87  SAPS      H17X           23.7961893115       31.7620750557        1.0429517744  MEMB      87              0.0000000000
     10028        87  SAPS      H17Y           23.8768053157       30.3940485820        2.3036711525  MEMB      87              0.0000000000
     10029        87  SAPS      C318           24.2503401168       29.8762497815        0.2094286971  MEMB      87              0.0000000000
     10030        87  SAPS      H18X           23.1994683786       29.6284169127       -0.0524264239  MEMB      87              0.0000000000
     10031        87  SAPS      H18Y           24.6397564123       28.8715363596        0.4800345286  MEMB      87              0.0000000000
     10032        87  SAPS      H18Z           24.7474476857       30.3042145944       -0.6872589121  MEMB      87              0.0000000000
     10033        88  CHL1      C3            -24.6335430924      -32.8121223810       17.3730850000  MEMB      88              0.0000000000
     10034        88  CHL1      H3            -24.9392699188      -31.7696444228       17.6056350000  MEMB      88              0.0000000000
     10035        88  CHL1      O3            -24.3371935076      -33.5573490190       18.6269150000  MEMB      88              0.0000000000
     10036        88  CHL1      H3'           -23.6987964990      -33.0473580564       19.1308550000  MEMB      88              0.0000000000
     10037        88  CHL1      C4            -25.6969038579      -33.6598285944       16.7162950000  MEMB      88              0.0000000000
     10038        88  CHL1      H4A           -25.3699391235      -34.7190458257       16.7903350000  MEMB      88              0.0000000000
     10039        88  CHL1      H4B           -26.6316379386      -33.8036725267       17.2993150000  MEMB      88              0.0000000000
     10040        88  CHL1      C5            -25.9406379939      -33.3448447346       15.2700350000  MEMB      88              0.0000000000
     10041        88  CHL1      C6            -27.1177555981      -32.8114093255       14.8025950000  MEMB      88              0.0000000000
     10042        88  CHL1      H6            -27.9691216688      -32.6439030861       15.4786950000  MEMB      88              0.0000000000
     10043        88  CHL1      C7            -27.3992921624      -32.3750080002       13.3509350000  MEMB      88              0.0000000000
     10044        88  CHL1      H7A           -28.3475892934      -32.7296473361       12.8934650000  MEMB      88              0.0000000000
     10045        88  CHL1      H7B           -27.5425446405      -31.2760894866       13.2723650000  MEMB      88              0.0000000000
     10046        88  CHL1      C8            -26.2694332424      -32.9823451128       12.4065550000  MEMB      88              0.0000000000
     10047        88  CHL1      H8            -26.3616637211      -34.0879030416       12.3469750000  MEMB      88              0.0000000000
     10048        88  CHL1      C14           -26.4503426909      -32.3158249631       11.0753850000  MEMB      88              0.0000000000
     10049        88  CHL1      H14           -26.3100299569      -31.2667777130       11.4131950000  MEMB      88              0.0000000000
     10050        88  CHL1      C15           -27.8010103406      -32.3677463307       10.3822150000  MEMB      88              0.0000000000
     10051        88  CHL1      H15A          -28.1174338252      -33.4267170658       10.2691750000  MEMB      88              0.0000000000
     10052        88  CHL1      H15B          -28.5953895586      -31.7951779406       10.9070550000  MEMB      88              0.0000000000
     10053        88  CHL1      C16           -27.4991665585      -31.9430059328        8.8969750000  MEMB      88              0.0000000000
     10054        88  CHL1      H16A          -27.7824139274      -32.8143527676        8.2686150000  MEMB      88              0.0000000000
     10055        88  CHL1      H16B          -28.0142636168      -31.0059395017        8.5954650000  MEMB      88              0.0000000000
     10056        88  CHL1      C17           -25.9338421326      -31.7297218542        8.8140350000  MEMB      88              0.0000000000
     10057        88  CHL1      H17           -25.6261845920      -30.6839691193        9.0286650000  MEMB      88              0.0000000000
     10058        88  CHL1      C13           -25.4202647789      -32.5430242335       10.1048750000  MEMB      88              0.0000000000
     10059        88  CHL1      C18           -25.3189414585      -33.9928105050        9.7547150000  MEMB      88              0.0000000000
     10060        88  CHL1      H18A          -24.5542233218      -34.3070946270        9.0125850000  MEMB      88              0.0000000000
     10061        88  CHL1      H18B          -25.1089619055      -34.6732720004       10.6074750000  MEMB      88              0.0000000000
     10062        88  CHL1      H18C          -26.3292446907      -34.2772899526        9.3904550000  MEMB      88              0.0000000000
     10063        88  CHL1      C12           -24.0800520423      -32.0831993743       10.7005050000  MEMB      88              0.0000000000
     10064        88  CHL1      H12A          -23.2732889019      -32.2439335235        9.9537550000  MEMB      88              0.0000000000
     10065        88  CHL1      H12B          -23.9835736677      -30.9959502680       10.9076350000  MEMB      88              0.0000000000
     10066        88  CHL1      C11           -23.7469727416      -32.8894568511       11.9476050000  MEMB      88              0.0000000000
     10067        88  CHL1      H11A          -23.6864550125      -33.9620168480       11.6642650000  MEMB      88              0.0000000000
     10068        88  CHL1      H11B          -22.7538057751      -32.4937262660       12.2498150000  MEMB      88              0.0000000000
     10069        88  CHL1      C9            -24.8906952399      -32.6938103890       13.0095650000  MEMB      88              0.0000000000
     10070        88  CHL1      H9            -24.9123064574      -31.6189309414       13.2897050000  MEMB      88              0.0000000000
     10071        88  CHL1      C10           -24.6783335231      -33.4114262353       14.4163050000  MEMB      88              0.0000000000
     10072        88  CHL1      C19           -24.2138389545      -34.8411659506       14.1840450000  MEMB      88              0.0000000000
     10073        88  CHL1      H19A          -23.3327527829      -34.9278248338       13.5128450000  MEMB      88              0.0000000000
     10074        88  CHL1      H19B          -23.8109014723      -35.3229881294       15.1004550000  MEMB      88              0.0000000000
     10075        88  CHL1      H19C          -25.0152745085      -35.5618165536       13.9144050000  MEMB      88              0.0000000000
     10076        88  CHL1      C1            -23.5651577909      -32.5607824222       15.0978750000  MEMB      88              0.0000000000
     10077        88  CHL1      H1A           -22.5691044265      -32.5878685468       14.6065050000  MEMB      88              0.0000000000
     10078        88  CHL1      H1B           -23.9331630520      -31.5137794928       15.1496550000  MEMB      88              0.0000000000
     10079        88  CHL1      C2            -23.3341509151      -32.8505276341       16.5830850000  MEMB      88              0.0000000000
     10080        88  CHL1      H2A           -22.6127638787      -32.1123665968       16.9942050000  MEMB      88              0.0000000000
     10081        88  CHL1      H2B           -22.9542628185      -33.8938401543       16.5440350000  MEMB      88              0.0000000000
     10082        88  CHL1      C20           -25.3622820466      -32.0825966438        7.3523350000  MEMB      88              0.0000000000
     10083        88  CHL1      H20           -25.7040142468      -33.1295943964        7.2062350000  MEMB      88              0.0000000000
     10084        88  CHL1      C21           -23.8489661604      -31.9881667222        7.2710750000  MEMB      88              0.0000000000
     10085        88  CHL1      H21A          -23.4536204447      -31.9336642862        6.2342250000  MEMB      88              0.0000000000
     10086        88  CHL1      H21B          -23.3522539332      -32.8314598068        7.7968750000  MEMB      88              0.0000000000
     10087        88  CHL1      H21C          -23.5946827266      -31.0686333139        7.8403950000  MEMB      88              0.0000000000
     10088        88  CHL1      C22           -26.1299333511      -31.1628251609        6.3973350000  MEMB      88              0.0000000000
     10089        88  CHL1      H22A          -27.2287909066      -31.3256555369        6.4152150000  MEMB      88              0.0000000000
     10090        88  CHL1      H22B          -25.9669067179      -30.1356584727        6.7880450000  MEMB      88              0.0000000000
     10091        88  CHL1      C23           -25.6524382530      -31.1578160433        4.9253950000  MEMB      88              0.0000000000
     10092        88  CHL1      H23A          -25.9315104614      -30.2063561044        4.4242250000  MEMB      88              0.0000000000
     10093        88  CHL1      H23B          -24.5441285279      -31.2106323136        4.8689650000  MEMB      88              0.0000000000
     10094        88  CHL1      C24           -26.3580610307      -32.2702348940        4.0946950000  MEMB      88              0.0000000000
     10095        88  CHL1      H24A          -26.3294304495      -33.1513646491        4.7707950000  MEMB      88              0.0000000000
     10096        88  CHL1      H24B          -27.4315901646      -32.0739210541        3.8865650000  MEMB      88              0.0000000000
     10097        88  CHL1      C25           -25.6848097404      -32.6408072475        2.7052050000  MEMB      88              0.0000000000
     10098        88  CHL1      H25           -24.7282267100      -33.1276720320        2.9919650000  MEMB      88              0.0000000000
     10099        88  CHL1      C26           -26.4088832390      -33.7100681256        1.9666850000  MEMB      88              0.0000000000
     10100        88  CHL1      H26A          -27.4028330634      -33.3185298784        1.6615950000  MEMB      88              0.0000000000
     10101        88  CHL1      H26B          -25.8933156530      -34.0100107459        1.0293750000  MEMB      88              0.0000000000
     10102        88  CHL1      H26C          -26.5384245191      -34.6066733703        2.6098250000  MEMB      88              0.0000000000
     10103        88  CHL1      C27           -25.3439914637      -31.5015854675        1.7716650000  MEMB      88              0.0000000000
     10104        88  CHL1      H27A          -24.5729312196      -30.9447701060        2.3459150000  MEMB      88              0.0000000000
     10105        88  CHL1      H27B          -24.9344803697      -31.7625444847        0.7724050000  MEMB      88              0.0000000000
     10106        88  CHL1      H27C          -26.2412211665      -30.8983405085        1.5159450000  MEMB      88              0.0000000000
     10107        89  OSM       N             -32.6319761695       29.5113660319       22.7713384786  MEMB      89              0.0000000000
     10108        89  OSM       C15           -33.3079289075       28.1943786943       22.3834668827  MEMB      89              0.0000000000
     10109        89  OSM       H15A          -34.1705548858       28.0398655393       23.0146580035  MEMB      89              0.0000000000
     10110        89  OSM       H15B          -32.6072076195       27.3742883739       22.4367716681  MEMB      89              0.0000000000
     10111        89  OSM       H15C          -33.6915390231       28.2898850234       21.3784186411  MEMB      89              0.0000000000
     10112        89  OSM       C14           -33.5959221448       30.6250039615       22.5011693867  MEMB      89              0.0000000000
     10113        89  OSM       H14A          -34.5503520379       30.5117705592       22.9937565968  MEMB      89              0.0000000000
     10114        89  OSM       H14B          -33.6328259074       30.7832497268       21.4334632785  MEMB      89              0.0000000000
     10115        89  OSM       H14C          -33.1300519904       31.5217052418       22.8823409111  MEMB      89              0.0000000000
     10116        89  OSM       C13           -32.1751462479       29.5934828444       24.1825222220  MEMB      89              0.0000000000
     10117        89  OSM       H13A          -31.5296498198       28.7339188817       24.2868496549  MEMB      89              0.0000000000
     10118        89  OSM       H13B          -33.0555454284       29.5894476367       24.8080469326  MEMB      89              0.0000000000
     10119        89  OSM       H13C          -31.5856750595       30.4977002250       24.2187825288  MEMB      89              0.0000000000
     10120        89  OSM       C12           -31.3437764194       29.7791950155       21.9066049230  MEMB      89              0.0000000000
     10121        89  OSM       H12A          -30.5927156868       29.1326283110       22.3358593071  MEMB      89              0.0000000000
     10122        89  OSM       H12B          -31.0282714291       30.7985867556       22.0730294574  MEMB      89              0.0000000000
     10123        89  OSM       C11           -31.2462652722       29.5423652299       20.4178114638  MEMB      89              0.0000000000
     10124        89  OSM       H11A          -30.2324642325       29.8724156245       20.1054091101  MEMB      89              0.0000000000
     10125        89  OSM       H11B          -31.9226864942       30.2736804886       19.9259238132  MEMB      89              0.0000000000
     10126        89  OSM       P             -30.4476597803       27.3037695063       19.4350395945  MEMB      89              0.0000000000
     10127        89  OSM       O13           -29.1923672741       27.8592740456       19.8688043765  MEMB      89              0.0000000000
     10128        89  OSM       O14           -30.7510946324       25.8817349076       19.7630197802  MEMB      89              0.0000000000
     10129        89  OSM       O11           -30.4561797523       27.4242471196       17.8368139164  MEMB      89              0.0000000000
     10130        89  OSM       O12           -31.6743705978       28.2324316431       19.9334089799  MEMB      89              0.0000000000
     10131        89  OSM       C1S           -31.6689495794       27.7749679682       17.1849918148  MEMB      89              0.0000000000
     10132        89  OSM       H1S           -31.6383650629       28.8779823480       17.0555898034  MEMB      89              0.0000000000
     10133        89  OSM       H1T           -32.5285800891       27.4599051604       17.8143502030  MEMB      89              0.0000000000
     10134        89  OSM       NF            -32.7032636648       27.8929408694       14.8457403038  MEMB      89              0.0000000000
     10135        89  OSM       HNF           -33.4604975913       27.3643302463       14.4700055999  MEMB      89              0.0000000000
     10136        89  OSM       C2S           -31.8071422536       27.1481919427       15.7476144935  MEMB      89              0.0000000000
     10137        89  OSM       H2S           -30.7777222936       27.1594873963       15.3298969449  MEMB      89              0.0000000000
     10138        89  OSM       C3S           -32.3153960918       25.7632140512       15.8420266039  MEMB      89              0.0000000000
     10139        89  OSM       H3S           -33.3108617777       25.8448564080       16.3285486706  MEMB      89              0.0000000000
     10140        89  OSM       O3            -31.4467399270       24.9522825389       16.6793487128  MEMB      89              0.0000000000
     10141        89  OSM       HO3           -30.8472504176       25.6547920689       16.9414417534  MEMB      89              0.0000000000
     10142        89  OSM       C4S           -32.4640335421       25.1382835323       14.4615791979  MEMB      89              0.0000000000
     10143        89  OSM       H4S           -31.6465683402       25.3625361484       13.7605360583  MEMB      89              0.0000000000
     10144        89  OSM       C5S           -33.4430110366       24.4011684290       13.9306751213  MEMB      89              0.0000000000
     10145        89  OSM       H5S           -34.3600683333       24.2073642289       14.5063885370  MEMB      89              0.0000000000
     10146        89  OSM       C6S           -33.3417389466       23.8783471490       12.5191322678  MEMB      89              0.0000000000
     10147        89  OSM       H6S           -34.3643123269       23.4971357924       12.3109428214  MEMB      89              0.0000000000
     10148        89  OSM       H6T           -32.6736037443       22.9947762646       12.6040959614  MEMB      89              0.0000000000
     10149        89  OSM       C7S           -32.8544947122       24.8122497098       11.4149912668  MEMB      89              0.0000000000
     10150        89  OSM       H7S           -32.8518262596       24.2240530117       10.4724743074  MEMB      89              0.0000000000
     10151        89  OSM       H7T           -31.8279559920       25.1486324120       11.6745786379  MEMB      89              0.0000000000
     10152        89  OSM       C8S           -33.6526846459       26.1327114580       11.1972129285  MEMB      89              0.0000000000
     10153        89  OSM       H8S           -33.8022373432       26.5651234489       12.2096236846  MEMB      89              0.0000000000
     10154        89  OSM       H8T           -34.5764091786       25.9982402326       10.5947425121  MEMB      89              0.0000000000
     10155        89  OSM       C9S           -32.7637756502       27.1223423101       10.4540557080  MEMB      89              0.0000000000
     10156        89  OSM       H9S           -31.7252329835       27.1115917931       10.8485615565  MEMB      89              0.0000000000
     10157        89  OSM       H9T           -33.1727005634       28.1123921353       10.7488483402  MEMB      89              0.0000000000
     10158        89  OSM       C10S          -32.6683211582       26.8585116691        9.0102043992  MEMB      89              0.0000000000
     10159        89  OSM       H10S          -33.7055536014       26.7839509570        8.6191678362  MEMB      89              0.0000000000
     10160        89  OSM       H10T          -32.3459479279       25.8384129797        8.7105468197  MEMB      89              0.0000000000
     10161        89  OSM       C11S          -31.8711627521       27.8865689788        8.2436529059  MEMB      89              0.0000000000
     10162        89  OSM       H11S          -30.7934638167       27.7502349669        8.4766745973  MEMB      89              0.0000000000
     10163        89  OSM       H11T          -32.2206339007       28.8280552842        8.7188308810  MEMB      89              0.0000000000
     10164        89  OSM       C12S          -32.0442149149       27.8521969173        6.7898762252  MEMB      89              0.0000000000
     10165        89  OSM       H12S          -33.1346734917       27.8390489552        6.5776296119  MEMB      89              0.0000000000
     10166        89  OSM       H12T          -31.7440772271       26.8647992658        6.3784339049  MEMB      89              0.0000000000
     10167        89  OSM       C13S          -31.5093344866       29.0232254534        5.9711061200  MEMB      89              0.0000000000
     10168        89  OSM       H13S          -30.4213104283       29.1972006846        6.1134341610  MEMB      89              0.0000000000
     10169        89  OSM       H13T          -32.0493904773       29.9420650032        6.2847851955  MEMB      89              0.0000000000
     10170        89  OSM       C14S          -31.8511697530       28.9783233315        4.4780291077  MEMB      89              0.0000000000
     10171        89  OSM       H14S          -31.8038560296       30.0346074863        4.1369333336  MEMB      89              0.0000000000
     10172        89  OSM       H14T          -32.9452983059       28.7991712144        4.4065534770  MEMB      89              0.0000000000
     10173        89  OSM       C15S          -30.9879849649       27.9365173386        3.6875191558  MEMB      89              0.0000000000
     10174        89  OSM       H15S          -31.4581984038       27.7681016387        2.6951189458  MEMB      89              0.0000000000
     10175        89  OSM       H15T          -30.9961028104       27.0163471467        4.3100478511  MEMB      89              0.0000000000
     10176        89  OSM       C16S          -29.6083998944       28.4894826440        3.3398211958  MEMB      89              0.0000000000
     10177        89  OSM       H16S          -28.9321683684       28.2562161538        4.1898909706  MEMB      89              0.0000000000
     10178        89  OSM       H16T          -29.9220691165       29.5547992808        3.3076775816  MEMB      89              0.0000000000
     10179        89  OSM       C17S          -29.0022728183       28.0514855303        1.9401866392  MEMB      89              0.0000000000
     10180        89  OSM       H17S          -29.8683652706       27.9705133452        1.2490658784  MEMB      89              0.0000000000
     10181        89  OSM       H17T          -28.5834687888       27.0224794057        1.9485704592  MEMB      89              0.0000000000
     10182        89  OSM       C18S          -27.9273214571       29.0044349937        1.4128147779  MEMB      89              0.0000000000
     10183        89  OSM       H18S          -28.3218984486       30.0014619253        1.1220102904  MEMB      89              0.0000000000
     10184        89  OSM       H18T          -27.5117521454       28.5734936880        0.4769124463  MEMB      89              0.0000000000
     10185        89  OSM       H18U          -27.0668294945       29.1228599437        2.1055272929  MEMB      89              0.0000000000
     10186        89  OSM       C1F           -32.5356884087       29.1347463895       14.3841210358  MEMB      89              0.0000000000
     10187        89  OSM       OF            -31.5446019798       29.7878145649       14.3443265318  MEMB      89              0.0000000000
     10188        89  OSM       C2F           -33.7662484897       29.7063304784       13.8609353135  MEMB      89              0.0000000000
     10189        89  OSM       H2F           -34.4771402985       29.8684956030       14.6991813094  MEMB      89              0.0000000000
     10190        89  OSM       H2G           -34.3272826340       28.9993208765       13.2130937243  MEMB      89              0.0000000000
     10191        89  OSM       C3F           -33.4613836897       31.1051797703       13.0741445215  MEMB      89              0.0000000000
     10192        89  OSM       H3F           -32.8175963101       31.8116239136       13.6405328345  MEMB      89              0.0000000000
     10193        89  OSM       H3G           -34.3930791094       31.6866902762       12.9064827689  MEMB      89              0.0000000000
     10194        89  OSM       C4F           -32.8493766182       30.8750107521       11.7154869665  MEMB      89              0.0000000000
     10195        89  OSM       H4F           -33.5726344938       30.3150000902       11.0849256285  MEMB      89              0.0000000000
     10196        89  OSM       H4G           -31.8874014221       30.3351971568       11.8478740474  MEMB      89              0.0000000000
     10197        89  OSM       C5F           -32.3302667935       32.1489571957       11.0016554788  MEMB      89              0.0000000000
     10198        89  OSM       H5F           -31.7498659733       31.7990353446       10.1213090767  MEMB      89              0.0000000000
     10199        89  OSM       H5G           -31.6612705018       32.6865120009       11.7072047054  MEMB      89              0.0000000000
     10200        89  OSM       C6F           -33.4611200956       33.0457285148       10.3677847504  MEMB      89              0.0000000000
     10201        89  OSM       H6F           -33.5764425899       33.8756844311       11.0973015500  MEMB      89              0.0000000000
     10202        89  OSM       H6G           -34.3289256678       32.3520197772       10.3694097687  MEMB      89              0.0000000000
     10203        89  OSM       C7F           -33.2535213169       33.5587589461        8.9244871001  MEMB      89              0.0000000000
     10204        89  OSM       H7F           -32.1645940505       33.7781748528        8.9041160935  MEMB      89              0.0000000000
     10205        89  OSM       H7G           -33.7375132798       34.5495209796        8.7886074323  MEMB      89              0.0000000000
     10206        89  OSM       C8F           -33.4850350260       32.5454981181        7.7924821860  MEMB      89              0.0000000000
     10207        89  OSM       H8F           -33.2598810408       31.5091378250        8.1235175679  MEMB      89              0.0000000000
     10208        89  OSM       H8G           -32.8024800363       32.6636372916        6.9238724027  MEMB      89              0.0000000000
     10209        89  OSM       C9F           -34.9394185312       32.6935614341        7.2158117695  MEMB      89              0.0000000000
     10210        89  OSM       H9F           -35.7605064531       32.4105267492        7.8908715407  MEMB      89              0.0000000000
     10211        89  OSM       C10F          -35.3028665331       32.9782255592        5.9534980068  MEMB      89              0.0000000000
     10212        89  OSM       H10F          -36.3921097407       33.0585515971        5.8227402216  MEMB      89              0.0000000000
     10213        89  OSM       C11F          -34.5359298321       33.2747602505        4.7155647134  MEMB      89              0.0000000000
     10214        89  OSM       H11F          -33.6349136885       33.8479984858        5.0219785745  MEMB      89              0.0000000000
     10215        89  OSM       H11G          -35.1514919675       33.9597765231        4.0941500867  MEMB      89              0.0000000000
     10216        89  OSM       C12F          -33.9601326004       32.1130123213        3.9315181699  MEMB      89              0.0000000000
     10217        89  OSM       H12F          -33.0613284445       31.7087004219        4.4443585796  MEMB      89              0.0000000000
     10218        89  OSM       H12G          -33.4239656157       32.5739250615        3.0745444947  MEMB      89              0.0000000000
     10219        89  OSM       C13F          -34.9075701856       31.0400534458        3.3828533531  MEMB      89              0.0000000000
     10220        89  OSM       H13F          -35.7780745196       31.5116807569        2.8787594526  MEMB      89              0.0000000000
     10221        89  OSM       H13G          -35.1945874856       30.2339531714        4.0914736140  MEMB      89              0.0000000000
     10222        89  OSM       C14F          -34.2663926160       30.1908753627        2.2739523872  MEMB      89              0.0000000000
     10223        89  OSM       H14F          -33.4482722064       29.6030880077        2.7424675243  MEMB      89              0.0000000000
     10224        89  OSM       H14G          -33.7188255449       30.7798280179        1.5073839904  MEMB      89              0.0000000000
     10225        89  OSM       C15F          -35.1396658384       29.2534199819        1.4210617213  MEMB      89              0.0000000000
     10226        89  OSM       H15F          -35.7761513802       29.9958625812        0.8938178289  MEMB      89              0.0000000000
     10227        89  OSM       H15G          -35.6840335621       28.5810740115        2.1181533819  MEMB      89              0.0000000000
     10228        89  OSM       C16F          -34.3843804964       28.4104761395        0.4123497758  MEMB      89              0.0000000000
     10229        89  OSM       H16F          -34.4726491301       27.4060961148        0.8789869843  MEMB      89              0.0000000000
     10230        89  OSM       H16G          -33.3268725317       28.7351338857        0.5152841617  MEMB      89              0.0000000000
     10231        89  OSM       C17F          -34.6900207358       28.5839240241       -1.0414866666  MEMB      89              0.0000000000
     10232        89  OSM       H17F          -34.4606802640       29.6298665926       -1.3376754346  MEMB      89              0.0000000000
     10233        89  OSM       H17G          -35.7625364504       28.3545670980       -1.2187604480  MEMB      89              0.0000000000
     10234        89  OSM       C18F          -33.9390276505       27.6042053019       -1.9007240766  MEMB      89              0.0000000000
     10235        89  OSM       H18F          -34.5444720627       27.5078849089       -2.8272664615  MEMB      89              0.0000000000
     10236        89  OSM       H18G          -33.7553180947       26.6280794918       -1.4029785267  MEMB      89              0.0000000000
     10237        89  OSM       H18H          -32.9432104684       27.9983016849       -2.1962862840  MEMB      89              0.0000000000
     10238        90  SAPE      N             -33.4622475324      -27.9972346044       22.0738007533  MEMB      90              0.0000000000
     10239        90  SAPE      HN1           -34.2897106627      -27.9230020923       21.4481855230  MEMB      90              0.0000000000
     10240        90  SAPE      HN2           -33.7406855025      -27.8833339045       23.0693401802  MEMB      90              0.0000000000
     10241        90  SAPE      HN3           -32.7969366985      -27.2456290821       21.8016781324  MEMB      90              0.0000000000
     10242        90  SAPE      C12           -32.7820037283      -29.2739752270       21.9773378983  MEMB      90              0.0000000000
     10243        90  SAPE      H12A          -33.5294872104      -30.0799667261       22.1384817604  MEMB      90              0.0000000000
     10244        90  SAPE      H12B          -32.0291499865      -29.2308543410       22.7932257459  MEMB      90              0.0000000000
     10245        90  SAPE      C11           -32.1938717570      -29.4926809879       20.6026722197  MEMB      90              0.0000000000
     10246        90  SAPE      H11A          -33.0430872582      -29.3375962766       19.9033133836  MEMB      90              0.0000000000
     10247        90  SAPE      H11B          -31.9137166152      -30.5416981264       20.3673064034  MEMB      90              0.0000000000
     10248        90  SAPE      P             -30.3557099648      -28.7652590017       18.9950842281  MEMB      90              0.0000000000
     10249        90  SAPE      O13           -31.3633485542      -28.4444646061       18.0414691637  MEMB      90              0.0000000000
     10250        90  SAPE      O14           -29.1869892421      -27.8706181915       19.0474436480  MEMB      90              0.0000000000
     10251        90  SAPE      O12           -31.0753316083      -28.6337908479       20.4428017908  MEMB      90              0.0000000000
     10252        90  SAPE      O11           -29.8376680129      -30.2456189337       18.8193903083  MEMB      90              0.0000000000
     10253        90  SAPE      C1            -28.8366481674      -30.7854221099       19.6530761225  MEMB      90              0.0000000000
     10254        90  SAPE      HA            -28.0916415519      -30.0020304581       19.9091692345  MEMB      90              0.0000000000
     10255        90  SAPE      HB            -29.3830633323      -31.0756593336       20.5758512189  MEMB      90              0.0000000000
     10256        90  SAPE      C2            -28.1098008419      -32.0064583213       19.0948948772  MEMB      90              0.0000000000
     10257        90  SAPE      HS            -27.1537742931      -32.0103797873       19.6608619595  MEMB      90              0.0000000000
     10258        90  SAPE      O21           -27.9458403143      -31.9033556426       17.6808489235  MEMB      90              0.0000000000
     10259        90  SAPE      C21           -27.1226206465      -30.9109971566       17.1912829019  MEMB      90              0.0000000000
     10260        90  SAPE      O22           -26.3115816220      -30.2315373323       17.8052714908  MEMB      90              0.0000000000
     10261        90  SAPE      C22           -27.3868208114      -30.8498553514       15.6540104056  MEMB      90              0.0000000000
     10262        90  SAPE      H2R           -26.3702648924      -30.6301620769       15.2632799106  MEMB      90              0.0000000000
     10263        90  SAPE      H2S           -27.7123861631      -31.8764350452       15.3811324050  MEMB      90              0.0000000000
     10264        90  SAPE      C3            -28.9006005096      -33.3441718052       19.4324868827  MEMB      90              0.0000000000
     10265        90  SAPE      HX            -29.0450985458      -33.3699090627       20.5337493343  MEMB      90              0.0000000000
     10266        90  SAPE      HY            -28.2032819527      -34.1850441330       19.2299981553  MEMB      90              0.0000000000
     10267        90  SAPE      O31           -30.0879716825      -33.4483957615       18.6388277004  MEMB      90              0.0000000000
     10268        90  SAPE      C31           -31.1866709654      -33.3056846995       19.3063088909  MEMB      90              0.0000000000
     10269        90  SAPE      O32           -31.3271365337      -33.2103508546       20.5082661658  MEMB      90              0.0000000000
     10270        90  SAPE      C32           -32.3693361776      -33.3086364654       18.3331185647  MEMB      90              0.0000000000
     10271        90  SAPE      H2X           -33.2848456191      -33.4035845350       18.9553310051  MEMB      90              0.0000000000
     10272        90  SAPE      H2Y           -32.2301476301      -34.1666757718       17.6412254291  MEMB      90              0.0000000000
     10273        90  SAPE      C23           -28.5477807360      -29.8603841970       15.5008119572  MEMB      90              0.0000000000
     10274        90  SAPE      H3R           -29.2848884146      -29.9247987986       16.3295723305  MEMB      90              0.0000000000
     10275        90  SAPE      H3S           -29.0797643526      -30.1003041615       14.5554267076  MEMB      90              0.0000000000
     10276        90  SAPE      C24           -28.0180623658      -28.3769026143       15.3039149440  MEMB      90              0.0000000000
     10277        90  SAPE      H4R           -27.3730329124      -28.4599157384       14.4031560157  MEMB      90              0.0000000000
     10278        90  SAPE      H4S           -27.3613005681      -28.1721383820       16.1763004305  MEMB      90              0.0000000000
     10279        90  SAPE      C25           -29.0877220744      -27.3086823185       15.0278225806  MEMB      90              0.0000000000
     10280        90  SAPE      H5R           -29.8171665735      -27.0432318212       15.8072108450  MEMB      90              0.0000000000
     10281        90  SAPE      C26           -29.2688739729      -26.7075200110       13.8909026420  MEMB      90              0.0000000000
     10282        90  SAPE      H6R           -30.1188345039      -26.0110961985       13.8402972561  MEMB      90              0.0000000000
     10283        90  SAPE      C27           -28.5520532638      -26.8818447432       12.6407908943  MEMB      90              0.0000000000
     10284        90  SAPE      H7R           -27.4826032559      -26.6654039071       12.8499583066  MEMB      90              0.0000000000
     10285        90  SAPE      H7S           -28.8219227291      -26.0475904471       11.9585072132  MEMB      90              0.0000000000
     10286        90  SAPE      C28           -28.7903566079      -28.1906029895       11.9338212234  MEMB      90              0.0000000000
     10287        90  SAPE      H8R           -29.8143900411      -28.5731810760       11.8113889940  MEMB      90              0.0000000000
     10288        90  SAPE      C29           -27.8916932379      -28.9992145183       11.4402684939  MEMB      90              0.0000000000
     10289        90  SAPE      H9R           -28.3320098079      -29.8333716589       10.8743156962  MEMB      90              0.0000000000
     10290        90  SAPE      C210          -26.3909437263      -28.8219958372       11.4818295502  MEMB      90              0.0000000000
     10291        90  SAPE      H10R          -26.1344089456      -29.9018811894       11.5303951309  MEMB      90              0.0000000000
     10292        90  SAPE      H10S          -26.0970141716      -28.3505887807       12.4439638645  MEMB      90              0.0000000000
     10293        90  SAPE      C211          -25.7157075076      -27.9229505427       10.4433767177  MEMB      90              0.0000000000
     10294        90  SAPE      H11R          -24.8079223984      -27.4238527659       10.8132785813  MEMB      90              0.0000000000
     10295        90  SAPE      C212          -25.9913779150      -27.8933770629        9.0884800917  MEMB      90              0.0000000000
     10296        90  SAPE      H12R          -25.3474256165      -27.2185064787        8.5054919481  MEMB      90              0.0000000000
     10297        90  SAPE      C213          -26.9757989754      -28.6598617060        8.1953812738  MEMB      90              0.0000000000
     10298        90  SAPE      H13R          -27.0733037817      -29.7141318177        8.5320243893  MEMB      90              0.0000000000
     10299        90  SAPE      H13S          -26.5063533565      -28.8126840096        7.2000993451  MEMB      90              0.0000000000
     10300        90  SAPE      C214          -28.3638543685      -28.0643178517        8.0851379871  MEMB      90              0.0000000000
     10301        90  SAPE      H14R          -29.1102993664      -28.5515110976        8.7297027180  MEMB      90              0.0000000000
     10302        90  SAPE      C215          -28.7469742713      -27.0699787470        7.2982037145  MEMB      90              0.0000000000
     10303        90  SAPE      H15R          -29.8094911839      -26.7854628018        7.2878017307  MEMB      90              0.0000000000
     10304        90  SAPE      C216          -27.8190469617      -26.3783246914        6.2960659249  MEMB      90              0.0000000000
     10305        90  SAPE      H16R          -26.7639704881      -26.5729033273        6.5846380452  MEMB      90              0.0000000000
     10306        90  SAPE      H16S          -28.1485533407      -25.3247013023        6.1710677503  MEMB      90              0.0000000000
     10307        90  SAPE      C217          -27.9981441717      -26.6637228159        4.8565148930  MEMB      90              0.0000000000
     10308        90  SAPE      H17R          -27.4051280901      -25.8318016768        4.4199825277  MEMB      90              0.0000000000
     10309        90  SAPE      H17S          -29.0348370462      -26.5464003194        4.4746453604  MEMB      90              0.0000000000
     10310        90  SAPE      C218          -27.5186561130      -28.1239963337        4.4407671162  MEMB      90              0.0000000000
     10311        90  SAPE      H18R          -28.1804017318      -28.8965294411        4.8875404121  MEMB      90              0.0000000000
     10312        90  SAPE      H18S          -26.4671971746      -28.1136836788        4.7994432623  MEMB      90              0.0000000000
     10313        90  SAPE      C219          -27.6734745255      -28.4659354188        2.9090639990  MEMB      90              0.0000000000
     10314        90  SAPE      H19R          -27.1038057924      -27.7382322648        2.2924235668  MEMB      90              0.0000000000
     10315        90  SAPE      H19S          -28.7654846228      -28.4112160282        2.7119834334  MEMB      90              0.0000000000
     10316        90  SAPE      C220          -27.1500437142      -29.9095597060        2.4864912581  MEMB      90              0.0000000000
     10317        90  SAPE      H20R          -26.0444529250      -29.8441557168        2.5743124236  MEMB      90              0.0000000000
     10318        90  SAPE      H20S          -27.4522112326      -30.1284570004        1.4400210844  MEMB      90              0.0000000000
     10319        90  SAPE      H20T          -27.5421579300      -30.7524413409        3.0948637314  MEMB      90              0.0000000000
     10320        90  SAPE      C33           -32.2859481446      -32.0096493382       17.5749009445  MEMB      90              0.0000000000
     10321        90  SAPE      H3X           -31.4323571862      -32.1322847326       16.8744267209  MEMB      90              0.0000000000
     10322        90  SAPE      H3Y           -32.1692810696      -31.1999291001       18.3266075686  MEMB      90              0.0000000000
     10323        90  SAPE      C34           -33.6752219536      -31.7570072334       16.9008280683  MEMB      90              0.0000000000
     10324        90  SAPE      H4X           -34.3859593523      -31.6776098834       17.7510454514  MEMB      90              0.0000000000
     10325        90  SAPE      H4Y           -33.9099525969      -32.6541662212       16.2890040863  MEMB      90              0.0000000000
     10326        90  SAPE      C35           -33.5202230978      -30.5189334713       15.9881498305  MEMB      90              0.0000000000
     10327        90  SAPE      H5X           -32.6189530993      -30.6177125798       15.3460626168  MEMB      90              0.0000000000
     10328        90  SAPE      H5Y           -33.4768352153      -29.6103510797       16.6260500743  MEMB      90              0.0000000000
     10329        90  SAPE      C36           -34.7136015743      -30.3786996791       15.0670064675  MEMB      90              0.0000000000
     10330        90  SAPE      H6X           -35.6215362252      -30.2147747981       15.6859607998  MEMB      90              0.0000000000
     10331        90  SAPE      H6Y           -34.9148321147      -31.3083797453       14.4929664544  MEMB      90              0.0000000000
     10332        90  SAPE      C37           -34.5513970268      -29.2274944774       14.1129616397  MEMB      90              0.0000000000
     10333        90  SAPE      H7X           -34.2973867973      -28.3399900693       14.7311329495  MEMB      90              0.0000000000
     10334        90  SAPE      H7Y           -35.4190210466      -29.0408563645       13.4445933916  MEMB      90              0.0000000000
     10335        90  SAPE      C38           -33.4724418631      -29.4188224078       12.9846295612  MEMB      90              0.0000000000
     10336        90  SAPE      H8X           -33.7271193084      -30.3088659945       12.3703959689  MEMB      90              0.0000000000
     10337        90  SAPE      H8Y           -32.4647127041      -29.6081325892       13.4123731941  MEMB      90              0.0000000000
     10338        90  SAPE      C39           -33.2949674728      -28.1884553205       12.0461960407  MEMB      90              0.0000000000
     10339        90  SAPE      H9X           -32.2046961394      -28.0311753595       11.9016532104  MEMB      90              0.0000000000
     10340        90  SAPE      H9Y           -33.6230117030      -27.2687624483       12.5761706568  MEMB      90              0.0000000000
     10341        90  SAPE      C310          -33.9976296635      -28.1939009704       10.6480559926  MEMB      90              0.0000000000
     10342        90  SAPE      H10X          -33.9198434244      -27.1755053823       10.2108590887  MEMB      90              0.0000000000
     10343        90  SAPE      H10Y          -35.0814856749      -28.3839671464       10.8011979831  MEMB      90              0.0000000000
     10344        90  SAPE      C311          -33.6685588813      -29.2536696087        9.6281676637  MEMB      90              0.0000000000
     10345        90  SAPE      H11X          -34.2347575198      -29.0292347168        8.6989916332  MEMB      90              0.0000000000
     10346        90  SAPE      H11Y          -33.8545874583      -30.3186856115        9.8840107231  MEMB      90              0.0000000000
     10347        90  SAPE      C312          -32.1869152941      -29.2692834619        9.1849859306  MEMB      90              0.0000000000
     10348        90  SAPE      H12X          -31.3516422550      -29.2474484765        9.9172176620  MEMB      90              0.0000000000
     10349        90  SAPE      H12Y          -31.9703217017      -28.3330223622        8.6274711663  MEMB      90              0.0000000000
     10350        90  SAPE      C313          -31.9002831580      -30.3386468851        8.1350384933  MEMB      90              0.0000000000
     10351        90  SAPE      H13X          -32.7708298579      -31.0284439662        8.1605228723  MEMB      90              0.0000000000
     10352        90  SAPE      H13Y          -30.9247367844      -30.7875044130        8.4199191325  MEMB      90              0.0000000000
     10353        90  SAPE      C314          -31.8998853863      -29.9808986975        6.6208932384  MEMB      90              0.0000000000
     10354        90  SAPE      H14X          -31.1599349458      -29.1534609107        6.6671657530  MEMB      90              0.0000000000
     10355        90  SAPE      H14Y          -32.8208435765      -29.5024937203        6.2243001608  MEMB      90              0.0000000000
     10356        90  SAPE      C315          -31.5887106701      -31.1895136572        5.6931022234  MEMB      90              0.0000000000
     10357        90  SAPE      H15X          -32.3610078309      -31.9881798594        5.6898968199  MEMB      90              0.0000000000
     10358        90  SAPE      H15Y          -30.5845313092      -31.5746108726        5.9717507665  MEMB      90              0.0000000000
     10359        90  SAPE      C316          -31.5372945538      -30.8448771546        4.1411171829  MEMB      90              0.0000000000
     10360        90  SAPE      H16X          -31.2140044427      -29.7888023975        4.2615769161  MEMB      90              0.0000000000
     10361        90  SAPE      H16Y          -32.4880328727      -31.1724755834        3.6687862956  MEMB      90              0.0000000000
     10362        90  SAPE      C317          -30.4974543374      -31.7084313554        3.4663914706  MEMB      90              0.0000000000
     10363        90  SAPE      H17X          -29.5687591351      -31.5386089613        4.0520589874  MEMB      90              0.0000000000
     10364        90  SAPE      H17Y          -30.3922279010      -31.1554393106        2.5085556668  MEMB      90              0.0000000000
     10365        90  SAPE      C318          -30.8723631734      -33.1856069437        3.2306170059  MEMB      90              0.0000000000
     10366        90  SAPE      H18X          -31.5950884952      -33.5898421122        3.9712814094  MEMB      90              0.0000000000
     10367        90  SAPE      H18Y          -29.9573914770      -33.8149953955        3.1987088301  MEMB      90              0.0000000000
     10368        90  SAPE      H18Z          -31.3348593269      -33.2518100348        2.2226307478  MEMB      90              0.0000000000
     10369        91  SOPE      N              34.8792217454      -22.7214323000       19.5389212588  MEMB      91              0.0000000000
     10370        91  SOPE      HN1            35.7542669853      -23.1367145778       19.1601909237  MEMB      91              0.0000000000
     10371        91  SOPE      HN2            34.1262519687      -23.4207865748       19.3791087395  MEMB      91              0.0000000000
     10372        91  SOPE      HN3            34.6767416605      -21.7804666171       19.1449854197  MEMB      91              0.0000000000
     10373        91  SOPE      C12            35.1577567916      -22.4642205825       21.0097802669  MEMB      91              0.0000000000
     10374        91  SOPE      H12A           34.2975873978      -21.8509352503       21.3537437431  MEMB      91              0.0000000000
     10375        91  SOPE      H12B           36.1146525235      -21.9068144181       21.0990548934  MEMB      91              0.0000000000
     10376        91  SOPE      C11            35.2074024434      -23.7958599837       21.8046708829  MEMB      91              0.0000000000
     10377        91  SOPE      H11A           34.2007151300      -24.2603355929       21.8765321901  MEMB      91              0.0000000000
     10378        91  SOPE      H11B           35.3005808840      -23.6357755608       22.9001213291  MEMB      91              0.0000000000
     10379        91  SOPE      P              35.9627757967      -26.1617021002       21.1652858755  MEMB      91              0.0000000000
     10380        91  SOPE      O13            35.6719898295      -26.7632269915       22.4902001073  MEMB      91              0.0000000000
     10381        91  SOPE      O14            37.0442935690      -26.7185852436       20.3053531116  MEMB      91              0.0000000000
     10382        91  SOPE      O12            36.2703497128      -24.6038660421       21.3625500729  MEMB      91              0.0000000000
     10383        91  SOPE      O11            34.6824557273      -26.2343167541       20.3232384617  MEMB      91              0.0000000000
     10384        91  SOPE      C1             34.1452170828      -27.4883751851       19.9860943832  MEMB      91              0.0000000000
     10385        91  SOPE      HA             33.0387561851      -27.3909473067       20.0100354058  MEMB      91              0.0000000000
     10386        91  SOPE      HB             34.4344068738      -28.2743849193       20.7160798813  MEMB      91              0.0000000000
     10387        91  SOPE      C2             34.5291968291      -27.7974239221       18.4437692729  MEMB      91              0.0000000000
     10388        91  SOPE      HS             35.6356701709      -27.8036275975       18.3437740800  MEMB      91              0.0000000000
     10389        91  SOPE      O21            34.0129808372      -26.9554754126       17.5260640778  MEMB      91              0.0000000000
     10390        91  SOPE      C21            34.6746499911      -25.8373280682       17.2010607828  MEMB      91              0.0000000000
     10391        91  SOPE      O22            35.8826345196      -25.6569637339       17.2958653155  MEMB      91              0.0000000000
     10392        91  SOPE      C22            33.6908245126      -24.8279665615       16.6993313952  MEMB      91              0.0000000000
     10393        91  SOPE      H2R            34.1929289076      -24.0475725202       16.0884328717  MEMB      91              0.0000000000
     10394        91  SOPE      H2S            33.3905191635      -24.3156026561       17.6382783151  MEMB      91              0.0000000000
     10395        91  SOPE      C3             34.0418869650      -29.2294485365       18.1719358965  MEMB      91              0.0000000000
     10396        91  SOPE      HX             32.9364663534      -29.3002540976       18.2576861389  MEMB      91              0.0000000000
     10397        91  SOPE      HY             34.3820667918      -29.8313198556       19.0416195854  MEMB      91              0.0000000000
     10398        91  SOPE      O31            34.5231350983      -29.7635412209       16.9295432952  MEMB      91              0.0000000000
     10399        91  SOPE      C31            35.7973675242      -30.1696232601       16.8492779819  MEMB      91              0.0000000000
     10400        91  SOPE      O32            36.5350137604      -30.5208675483       17.7965321090  MEMB      91              0.0000000000
     10401        91  SOPE      C32            36.3268589679      -30.0509264194       15.3657208575  MEMB      91              0.0000000000
     10402        91  SOPE      H2X            36.5893696538      -28.9756749848       15.2695780641  MEMB      91              0.0000000000
     10403        91  SOPE      H2Y            35.5748453030      -30.2965025672       14.5856637479  MEMB      91              0.0000000000
     10404        91  SOPE      C23            32.4422534696      -25.4153136493       15.9955427969  MEMB      91              0.0000000000
     10405        91  SOPE      H3R            31.7285430974      -24.5949227577       15.7677324206  MEMB      91              0.0000000000
     10406        91  SOPE      H3S            31.8667140277      -26.1684218550       16.5751142992  MEMB      91              0.0000000000
     10407        91  SOPE      C24            32.8007599613      -26.2802937838       14.8018847673  MEMB      91              0.0000000000
     10408        91  SOPE      H4R            33.2242990986      -27.2048908593       15.2491609911  MEMB      91              0.0000000000
     10409        91  SOPE      H4S            31.9114156070      -26.5995018586       14.2175098251  MEMB      91              0.0000000000
     10410        91  SOPE      C25            33.7753571502      -25.6276873557       13.7587956768  MEMB      91              0.0000000000
     10411        91  SOPE      H5R            33.3404697655      -24.6590481362       13.4317906481  MEMB      91              0.0000000000
     10412        91  SOPE      H5S            34.7580833212      -25.5176885249       14.2652251160  MEMB      91              0.0000000000
     10413        91  SOPE      C26            33.9197172249      -26.6179033996       12.5895444318  MEMB      91              0.0000000000
     10414        91  SOPE      H6R            34.1945575351      -27.6323567989       12.9496390350  MEMB      91              0.0000000000
     10415        91  SOPE      H6S            32.9535434312      -26.7043664783       12.0479239889  MEMB      91              0.0000000000
     10416        91  SOPE      C27            34.8963082652      -26.2412370056       11.5453218889  MEMB      91              0.0000000000
     10417        91  SOPE      H7R            34.8699875942      -25.1629825465       11.2788720378  MEMB      91              0.0000000000
     10418        91  SOPE      H7S            35.9491126814      -26.4816311242       11.8063472709  MEMB      91              0.0000000000
     10419        91  SOPE      C28            34.6201304702      -26.9811138392       10.3012284563  MEMB      91              0.0000000000
     10420        91  SOPE      H8R            34.6366152985      -28.0697728937       10.5222959746  MEMB      91              0.0000000000
     10421        91  SOPE      H8S            33.5899827835      -26.7773260546        9.9384789313  MEMB      91              0.0000000000
     10422        91  SOPE      C29            35.5963226869      -26.7451183603        9.1946341065  MEMB      91              0.0000000000
     10423        91  SOPE      H91            36.6001834582      -26.4291004673        9.5146286500  MEMB      91              0.0000000000
     10424        91  SOPE      C210           35.3533384258      -26.8082313771        7.8547344908  MEMB      91              0.0000000000
     10425        91  SOPE      H101           36.1412033867      -26.6462892673        7.1043717274  MEMB      91              0.0000000000
     10426        91  SOPE      C211           34.0258213958      -27.1487510057        7.1926074488  MEMB      91              0.0000000000
     10427        91  SOPE      H11R           33.8908230767      -26.3424926487        6.4402488220  MEMB      91              0.0000000000
     10428        91  SOPE      H11S           33.2128000878      -27.0517992178        7.9435525358  MEMB      91              0.0000000000
     10429        91  SOPE      C212           33.8917594181      -28.5789684529        6.5209186843  MEMB      91              0.0000000000
     10430        91  SOPE      H12R           34.8201048369      -28.8203613516        5.9603611961  MEMB      91              0.0000000000
     10431        91  SOPE      H12S           33.0876464165      -28.6055651231        5.7547491170  MEMB      91              0.0000000000
     10432        91  SOPE      C213           33.6391180966      -29.7494631073        7.4924305918  MEMB      91              0.0000000000
     10433        91  SOPE      H13R           32.7131739071      -29.6891725080        8.1034242704  MEMB      91              0.0000000000
     10434        91  SOPE      H13S           34.4658890162      -29.5754776470        8.2138868051  MEMB      91              0.0000000000
     10435        91  SOPE      C214           33.7610156545      -31.1177821859        6.8735479954  MEMB      91              0.0000000000
     10436        91  SOPE      H14R           33.9256495786      -31.8862850566        7.6587991066  MEMB      91              0.0000000000
     10437        91  SOPE      H14S           34.6089834957      -31.1844858031        6.1588289343  MEMB      91              0.0000000000
     10438        91  SOPE      C215           32.5966130434      -31.6059788687        6.0391900787  MEMB      91              0.0000000000
     10439        91  SOPE      H15R           32.1795510577      -30.7539384736        5.4609099998  MEMB      91              0.0000000000
     10440        91  SOPE      H15S           31.8195913208      -31.7690241800        6.8163476332  MEMB      91              0.0000000000
     10441        91  SOPE      C216           32.8913231018      -32.8320824760        5.0785710910  MEMB      91              0.0000000000
     10442        91  SOPE      H16R           33.3165623930      -32.3407994707        4.1773860432  MEMB      91              0.0000000000
     10443        91  SOPE      H16S           31.9312247974      -33.1204657788        4.5996479017  MEMB      91              0.0000000000
     10444        91  SOPE      C217           33.7151238709      -33.9882348991        5.5565546120  MEMB      91              0.0000000000
     10445        91  SOPE      H17R           33.1179217036      -34.6030490557        6.2634315661  MEMB      91              0.0000000000
     10446        91  SOPE      H17S           34.4277916397      -33.5269017204        6.2732111902  MEMB      91              0.0000000000
     10447        91  SOPE      C218           34.4800493407      -34.7771778837        4.4482609368  MEMB      91              0.0000000000
     10448        91  SOPE      H18R           33.6885603205      -35.1933745304        3.7889846916  MEMB      91              0.0000000000
     10449        91  SOPE      H18S           35.1184749828      -35.5684922819        4.8960953322  MEMB      91              0.0000000000
     10450        91  SOPE      H18T           35.0433905740      -34.0412056921        3.8356341742  MEMB      91              0.0000000000
     10451        91  SOPE      C33            37.6191031538      -30.8740280138       15.0257915887  MEMB      91              0.0000000000
     10452        91  SOPE      H3X            37.6238517973      -31.9342065508       15.3579357674  MEMB      91              0.0000000000
     10453        91  SOPE      H3Y            38.4384931566      -30.2770031211       15.4801946328  MEMB      91              0.0000000000
     10454        91  SOPE      C34            37.7946517443      -31.0752939172       13.4938191962  MEMB      91              0.0000000000
     10455        91  SOPE      H4X            36.9792207361      -31.7644413570       13.1864615405  MEMB      91              0.0000000000
     10456        91  SOPE      H4Y            38.6828442545      -31.7410014603       13.4461956105  MEMB      91              0.0000000000
     10457        91  SOPE      C35            38.0109228195      -29.8543013954       12.6838687198  MEMB      91              0.0000000000
     10458        91  SOPE      H5X            38.9727477359      -29.3390677315       12.8930293946  MEMB      91              0.0000000000
     10459        91  SOPE      H5Y            37.2447078877      -29.0739693724       12.8796188931  MEMB      91              0.0000000000
     10460        91  SOPE      C36            38.3164701620      -30.1100572479       11.2065114629  MEMB      91              0.0000000000
     10461        91  SOPE      H6X            39.3061081705      -30.6009494889       11.0883495002  MEMB      91              0.0000000000
     10462        91  SOPE      H6Y            38.4541819945      -29.1625978108       10.6428832218  MEMB      91              0.0000000000
     10463        91  SOPE      C37            37.1132022242      -30.9798527761       10.5309739784  MEMB      91              0.0000000000
     10464        91  SOPE      H7X            36.2035737490      -30.3619207905       10.3726793394  MEMB      91              0.0000000000
     10465        91  SOPE      H7Y            36.9194137239      -31.8985542940       11.1249048950  MEMB      91              0.0000000000
     10466        91  SOPE      C38            37.4024358437      -31.5802288951        9.0925244094  MEMB      91              0.0000000000
     10467        91  SOPE      H8X            36.6642490890      -32.3437763384        8.7663397004  MEMB      91              0.0000000000
     10468        91  SOPE      H8Y            38.4321691483      -31.9969290259        9.1107221629  MEMB      91              0.0000000000
     10469        91  SOPE      C39            37.4394845562      -30.5527364258        7.9993521314  MEMB      91              0.0000000000
     10470        91  SOPE      H9X            37.7861479369      -29.5788661654        8.4064430195  MEMB      91              0.0000000000
     10471        91  SOPE      H9Y            36.3935296129      -30.3411335628        7.6902837670  MEMB      91              0.0000000000
     10472        91  SOPE      C310           38.3247821399      -30.9887298001        6.8094741036  MEMB      91              0.0000000000
     10473        91  SOPE      H10X           38.2984009532      -32.0944554502        6.7046133344  MEMB      91              0.0000000000
     10474        91  SOPE      H10Y           39.3990675438      -30.8044521589        7.0245868277  MEMB      91              0.0000000000
     10475        91  SOPE      C311           38.0644365074      -30.4219731865        5.3745297090  MEMB      91              0.0000000000
     10476        91  SOPE      H11X           37.0505453172      -30.7440979030        5.0542477736  MEMB      91              0.0000000000
     10477        91  SOPE      H11Y           38.9338333058      -30.7435282208        4.7620986813  MEMB      91              0.0000000000
     10478        91  SOPE      C312           37.8644474198      -28.8964348694        5.3994541579  MEMB      91              0.0000000000
     10479        91  SOPE      H12X           38.6945034449      -28.5229367789        6.0365014282  MEMB      91              0.0000000000
     10480        91  SOPE      H12Y           36.9619019629      -28.4415696041        5.8607908440  MEMB      91              0.0000000000
     10481        91  SOPE      C313           37.9657365489      -28.3141488438        3.9444011112  MEMB      91              0.0000000000
     10482        91  SOPE      H13X           37.2803541749      -29.0346245542        3.4489369132  MEMB      91              0.0000000000
     10483        91  SOPE      H13Y           38.9362326658      -28.4248326420        3.4150549661  MEMB      91              0.0000000000
     10484        91  SOPE      C314           37.5385596996      -26.8357587470        3.8118017869  MEMB      91              0.0000000000
     10485        91  SOPE      H14X           38.3639149957      -26.1955401735        4.1902580660  MEMB      91              0.0000000000
     10486        91  SOPE      H14Y           36.6297003817      -26.7986198467        4.4497017114  MEMB      91              0.0000000000
     10487        91  SOPE      C315           37.0670583399      -26.2209180041        2.5191381963  MEMB      91              0.0000000000
     10488        91  SOPE      H15X           37.9529986506      -26.3799042130        1.8678671654  MEMB      91              0.0000000000
     10489        91  SOPE      H15Y           36.8472540350      -25.1360628497        2.6145128000  MEMB      91              0.0000000000
     10490        91  SOPE      C316           35.7973680776      -26.7173490041        1.9155369644  MEMB      91              0.0000000000
     10491        91  SOPE      H16X           35.3995825336      -25.9049075680        1.2705358395  MEMB      91              0.0000000000
     10492        91  SOPE      H16Y           35.1197847684      -26.9602610620        2.7618210703  MEMB      91              0.0000000000
     10493        91  SOPE      C317           35.9276429486      -27.7958966402        0.8405083801  MEMB      91              0.0000000000
     10494        91  SOPE      H17X           35.7789136149      -28.7708311820        1.3520775432  MEMB      91              0.0000000000
     10495        91  SOPE      H17Y           36.9346278951      -27.7049400593        0.3800421086  MEMB      91              0.0000000000
     10496        91  SOPE      C318           34.9557010591      -27.6500731756       -0.2765975246  MEMB      91              0.0000000000
     10497        91  SOPE      H18X           34.9764713285      -28.5448378293       -0.9348443396  MEMB      91              0.0000000000
     10498        91  SOPE      H18Y           35.3178686845      -26.8014057752       -0.8954028275  MEMB      91              0.0000000000
     10499        91  SOPE      H18Z           33.9322942247      -27.3021256077       -0.0199046203  MEMB      91              0.0000000000
     10500        92  SAPC      N              35.2898312866       24.9416688057       21.9960857197  MEMB      92              0.0000000000
     10501        92  SAPC      C12            34.8622468147       24.2979914739       20.7067512106  MEMB      92              0.0000000000
     10502        92  SAPC      H12A           34.5951587308       23.2735674798       20.9203381428  MEMB      92              0.0000000000
     10503        92  SAPC      H12B           35.7078811853       24.2723101141       20.0354516754  MEMB      92              0.0000000000
     10504        92  SAPC      C13            34.1968106042       24.8237348322       23.0431614465  MEMB      92              0.0000000000
     10505        92  SAPC      H13A           33.3193909898       25.2667194412       22.5956129038  MEMB      92              0.0000000000
     10506        92  SAPC      H13B           33.9531225501       23.7932999211       23.2558113806  MEMB      92              0.0000000000
     10507        92  SAPC      H13C           34.6187470818       25.3772600315       23.8689818577  MEMB      92              0.0000000000
     10508        92  SAPC      C14            36.4484718922       24.1966380721       22.5975807413  MEMB      92              0.0000000000
     10509        92  SAPC      H14A           36.2296843235       23.1392136300       22.5779471606  MEMB      92              0.0000000000
     10510        92  SAPC      H14B           37.3532382226       24.3786911854       22.0366400435  MEMB      92              0.0000000000
     10511        92  SAPC      H14C           36.5144942233       24.5226434366       23.6250831617  MEMB      92              0.0000000000
     10512        92  SAPC      C15            35.6852042383       26.3993333859       21.7386656726  MEMB      92              0.0000000000
     10513        92  SAPC      H15A           34.8850325674       26.8066296815       21.1384697683  MEMB      92              0.0000000000
     10514        92  SAPC      H15B           35.7820055977       26.9477421194       22.6640181883  MEMB      92              0.0000000000
     10515        92  SAPC      H15C           36.5979075420       26.3325346429       21.1651581977  MEMB      92              0.0000000000
     10516        92  SAPC      C11            33.7315991662       24.9605365962       19.9305443059  MEMB      92              0.0000000000
     10517        92  SAPC      H11A           32.8021256559       25.0297656515       20.5351990141  MEMB      92              0.0000000000
     10518        92  SAPC      H11B           33.5318721486       24.2746406681       19.0796759564  MEMB      92              0.0000000000
     10519        92  SAPC      P              34.8166048049       26.3204062554       17.9505946687  MEMB      92              0.0000000000
     10520        92  SAPC      O13            36.1773307510       25.7522010661       18.1170257048  MEMB      92              0.0000000000
     10521        92  SAPC      O14            34.0092047645       25.6772128823       16.8342680436  MEMB      92              0.0000000000
     10522        92  SAPC      O12            34.0380461805       26.2346776492       19.3625160440  MEMB      92              0.0000000000
     10523        92  SAPC      O11            34.9371823435       27.8695126490       17.7228064442  MEMB      92              0.0000000000
     10524        92  SAPC      C1             35.7295306284       28.5795541201       18.5387398272  MEMB      92              0.0000000000
     10525        92  SAPC      HA             35.0428468870       29.1255458238       19.2204138939  MEMB      92              0.0000000000
     10526        92  SAPC      HB             36.4284665369       28.0160300857       19.1931483282  MEMB      92              0.0000000000
     10527        92  SAPC      C2             36.6278914048       29.6369378592       17.8158208048  MEMB      92              0.0000000000
     10528        92  SAPC      HS             37.1852677534       30.2346220303       18.5684341098  MEMB      92              0.0000000000
     10529        92  SAPC      O21            35.9678667179       30.5170902492       16.9214203144  MEMB      92              0.0000000000
     10530        92  SAPC      C21            34.9861971486       31.2415612027       17.4106065516  MEMB      92              0.0000000000
     10531        92  SAPC      O22            34.6048879043       31.3722734006       18.5658880415  MEMB      92              0.0000000000
     10532        92  SAPC      C22            34.3038885789       32.0730235780       16.3929115144  MEMB      92              0.0000000000
     10533        92  SAPC      H2R            33.9989055531       33.0790776541       16.7523013023  MEMB      92              0.0000000000
     10534        92  SAPC      H2S            35.0507176097       32.2939726921       15.6006052022  MEMB      92              0.0000000000
     10535        92  SAPC      C3             37.7365386124       28.9843103565       16.9374189809  MEMB      92              0.0000000000
     10536        92  SAPC      HX             38.1170163032       28.2255085751       17.6542016664  MEMB      92              0.0000000000
     10537        92  SAPC      HY             38.5650324576       29.6660328283       16.6490210808  MEMB      92              0.0000000000
     10538        92  SAPC      O31            37.1215461753       28.4046250729       15.7828463313  MEMB      92              0.0000000000
     10539        92  SAPC      C31            37.7961280026       27.5099035982       15.1583294183  MEMB      92              0.0000000000
     10540        92  SAPC      O32            38.9599758033       27.2221902620       15.5019783955  MEMB      92              0.0000000000
     10541        92  SAPC      C32            36.9205932003       26.8964608097       14.0564858858  MEMB      92              0.0000000000
     10542        92  SAPC      H2X            36.3391861658       27.6497279430       13.4830094179  MEMB      92              0.0000000000
     10543        92  SAPC      H2Y            36.1757145941       26.2896469898       14.6143874485  MEMB      92              0.0000000000
     10544        92  SAPC      C23            33.0845644280       31.3746754733       15.8286497769  MEMB      92              0.0000000000
     10545        92  SAPC      H3R            32.7476357660       32.0175414685       14.9875061615  MEMB      92              0.0000000000
     10546        92  SAPC      H3S            32.2854989195       31.2991144008       16.5968334421  MEMB      92              0.0000000000
     10547        92  SAPC      C24            33.4340044909       30.0441453860       15.0885475177  MEMB      92              0.0000000000
     10548        92  SAPC      H4R            32.4970176775       29.5030201285       14.8364363104  MEMB      92              0.0000000000
     10549        92  SAPC      H4S            33.8769658716       29.3349844818       15.8201193057  MEMB      92              0.0000000000
     10550        92  SAPC      C25            34.3699978326       30.1885274897       13.9505294983  MEMB      92              0.0000000000
     10551        92  SAPC      H5R            35.3900512135       30.4843441388       14.2368570387  MEMB      92              0.0000000000
     10552        92  SAPC      C26            34.3049491936       29.7614640169       12.7082389106  MEMB      92              0.0000000000
     10553        92  SAPC      H6R            35.2159351985       29.8240597637       12.0948981398  MEMB      92              0.0000000000
     10554        92  SAPC      C27            33.2049632991       29.0203314849       12.0867995325  MEMB      92              0.0000000000
     10555        92  SAPC      H7R            33.2222732160       29.4102084079       11.0465992685  MEMB      92              0.0000000000
     10556        92  SAPC      H7S            32.2594269117       29.1828957696       12.6470270217  MEMB      92              0.0000000000
     10557        92  SAPC      C28            33.4800425214       27.5376690166       12.1273786187  MEMB      92              0.0000000000
     10558        92  SAPC      H8R            33.7909590675       27.0481510796       13.0620992251  MEMB      92              0.0000000000
     10559        92  SAPC      C29            33.2959944459       26.7438705578       11.0702556837  MEMB      92              0.0000000000
     10560        92  SAPC      H9R            33.5355342802       25.6702946398       11.0776837803  MEMB      92              0.0000000000
     10561        92  SAPC      C210           32.7921836796       27.1547638098        9.6970194692  MEMB      92              0.0000000000
     10562        92  SAPC      H10R           31.9807415726       27.9027599681        9.8250216572  MEMB      92              0.0000000000
     10563        92  SAPC      H10S           32.4561553211       26.2331626370        9.1754288544  MEMB      92              0.0000000000
     10564        92  SAPC      C211           33.7575526984       27.9370184602        8.8357839386  MEMB      92              0.0000000000
     10565        92  SAPC      H11R           34.4086862983       28.6715548153        9.3322532250  MEMB      92              0.0000000000
     10566        92  SAPC      C212           33.8841922133       27.8993130850        7.4654139592  MEMB      92              0.0000000000
     10567        92  SAPC      H12R           34.8029127302       28.3086859762        7.0200310730  MEMB      92              0.0000000000
     10568        92  SAPC      C213           33.1108695904       27.0208734339        6.5120836352  MEMB      92              0.0000000000
     10569        92  SAPC      H13R           32.6695142064       26.1069245718        6.9639953792  MEMB      92              0.0000000000
     10570        92  SAPC      H13S           33.8772618767       26.6451948133        5.8008668464  MEMB      92              0.0000000000
     10571        92  SAPC      C214           32.0863111626       27.6860234220        5.6643298107  MEMB      92              0.0000000000
     10572        92  SAPC      H14R           31.0138683996       27.5569963157        5.8722207156  MEMB      92              0.0000000000
     10573        92  SAPC      C215           32.2123664362       28.4921357243        4.5679560320  MEMB      92              0.0000000000
     10574        92  SAPC      H15R           31.3278436099       28.9011333618        4.0577210737  MEMB      92              0.0000000000
     10575        92  SAPC      C216           33.4336492170       28.9431223288        3.8762182134  MEMB      92              0.0000000000
     10576        92  SAPC      H16R           34.3037784296       28.4430701309        4.3528141565  MEMB      92              0.0000000000
     10577        92  SAPC      H16S           33.6183059706       29.9822254338        4.2233315234  MEMB      92              0.0000000000
     10578        92  SAPC      C217           33.4818914958       28.6644428140        2.3550933800  MEMB      92              0.0000000000
     10579        92  SAPC      H17R           34.3013590450       29.1191152688        1.7583808815  MEMB      92              0.0000000000
     10580        92  SAPC      H17S           32.5654919798       29.0633346126        1.8698943823  MEMB      92              0.0000000000
     10581        92  SAPC      C218           33.7316142402       27.2049977204        2.0923924198  MEMB      92              0.0000000000
     10582        92  SAPC      H18R           32.9679770495       26.5914574567        2.6165554643  MEMB      92              0.0000000000
     10583        92  SAPC      H18S           34.6877762117       26.8942764315        2.5651795265  MEMB      92              0.0000000000
     10584        92  SAPC      C219           33.8476657908       26.8615211074        0.5925855730  MEMB      92              0.0000000000
     10585        92  SAPC      H19R           34.1903830756       25.8047036926        0.5941638084  MEMB      92              0.0000000000
     10586        92  SAPC      H19S           34.5096100247       27.5518100560        0.0272062979  MEMB      92              0.0000000000
     10587        92  SAPC      C220           32.5053829933       26.8708646966       -0.1403809576  MEMB      92              0.0000000000
     10588        92  SAPC      H20R           32.7469036306       26.5134542641       -1.1642198643  MEMB      92              0.0000000000
     10589        92  SAPC      H20S           32.1163971005       27.9111173222       -0.1701419362  MEMB      92              0.0000000000
     10590        92  SAPC      H20T           31.8904722999       26.1612323458        0.4534434733  MEMB      92              0.0000000000
     10591        92  SAPC      C33            37.6569775234       25.9232051016       13.1380457354  MEMB      92              0.0000000000
     10592        92  SAPC      H3X            36.9026777641       25.1290473340       12.9518568639  MEMB      92              0.0000000000
     10593        92  SAPC      H3Y            38.4832980858       25.3875898872       13.6524692196  MEMB      92              0.0000000000
     10594        92  SAPC      C34            38.3730261238       26.5016662533       11.8737341408  MEMB      92              0.0000000000
     10595        92  SAPC      H4X            39.1123679063       25.6735471192       11.8299926193  MEMB      92              0.0000000000
     10596        92  SAPC      H4Y            38.8542942837       27.4895193300       12.0375878248  MEMB      92              0.0000000000
     10597        92  SAPC      C35            37.5717319513       26.5900529109       10.5555023547  MEMB      92              0.0000000000
     10598        92  SAPC      H5X            36.7501399583       27.3354743829       10.6159560891  MEMB      92              0.0000000000
     10599        92  SAPC      H5Y            37.1695439729       25.5732369456       10.3589031991  MEMB      92              0.0000000000
     10600        92  SAPC      C36            38.4238125554       27.0624234144        9.4170062197  MEMB      92              0.0000000000
     10601        92  SAPC      H6X            39.4106717858       26.5538141249        9.4588009100  MEMB      92              0.0000000000
     10602        92  SAPC      H6Y            38.5363901725       28.1440144472        9.6446201847  MEMB      92              0.0000000000
     10603        92  SAPC      C37            37.7023578650       26.9069315319        8.0206827562  MEMB      92              0.0000000000
     10604        92  SAPC      H7X            38.2661602636       27.4931130750        7.2638212557  MEMB      92              0.0000000000
     10605        92  SAPC      H7Y            36.6439419656       27.2287589278        7.9181944535  MEMB      92              0.0000000000
     10606        92  SAPC      C38            37.6462535731       25.4813862096        7.4733532251  MEMB      92              0.0000000000
     10607        92  SAPC      H8X            37.3636440484       24.8992857071        8.3764657541  MEMB      92              0.0000000000
     10608        92  SAPC      H8Y            38.5550886093       25.0759704371        6.9794124201  MEMB      92              0.0000000000
     10609        92  SAPC      C39            36.4948566116       25.3135030279        6.4998762703  MEMB      92              0.0000000000
     10610        92  SAPC      H9X            35.5895490118       25.5561988912        7.0963979343  MEMB      92              0.0000000000
     10611        92  SAPC      H9Y            36.3310389238       24.2300137798        6.3167474599  MEMB      92              0.0000000000
     10612        92  SAPC      C310           36.4339216163       26.1768487098        5.2689602842  MEMB      92              0.0000000000
     10613        92  SAPC      H10X           36.1168274254       27.2010202626        5.5602420086  MEMB      92              0.0000000000
     10614        92  SAPC      H10Y           35.5765351111       25.8162030737        4.6613884047  MEMB      92              0.0000000000
     10615        92  SAPC      C311           37.7133796497       26.2717821773        4.5795459972  MEMB      92              0.0000000000
     10616        92  SAPC      H11X           38.0458063339       25.2565520320        4.2743878420  MEMB      92              0.0000000000
     10617        92  SAPC      H11Y           38.4467887521       26.7318375061        5.2758081116  MEMB      92              0.0000000000
     10618        92  SAPC      C312           37.5775823807       27.2285275929        3.3306076580  MEMB      92              0.0000000000
     10619        92  SAPC      H12X           36.7954798326       28.0104200685        3.4368184927  MEMB      92              0.0000000000
     10620        92  SAPC      H12Y           37.2675607116       26.5541092202        2.5039472017  MEMB      92              0.0000000000
     10621        92  SAPC      C313           38.8106752758       28.0125110092        2.9430606632  MEMB      92              0.0000000000
     10622        92  SAPC      H13X           39.3043908783       27.4701462653        2.1085512363  MEMB      92              0.0000000000
     10623        92  SAPC      H13Y           39.3623134384       27.9479528488        3.9052712634  MEMB      92              0.0000000000
     10624        92  SAPC      C314           38.6423970778       29.4842445211        2.4082958428  MEMB      92              0.0000000000
     10625        92  SAPC      H14X           39.6599398360       29.9221488380        2.3236315219  MEMB      92              0.0000000000
     10626        92  SAPC      H14Y           38.0976211346       30.0976722403        3.1574595266  MEMB      92              0.0000000000
     10627        92  SAPC      C315           37.9212909844       29.5566297587        1.1031411901  MEMB      92              0.0000000000
     10628        92  SAPC      H15X           37.7052158780       30.6344723877        0.9422450533  MEMB      92              0.0000000000
     10629        92  SAPC      H15Y           36.9045227295       29.1284132821        1.2340385283  MEMB      92              0.0000000000
     10630        92  SAPC      C316           38.6545499476       28.9979436100       -0.0276138542  MEMB      92              0.0000000000
     10631        92  SAPC      H16X           38.9785411925       27.9532401165        0.1671838595  MEMB      92              0.0000000000
     10632        92  SAPC      H16Y           39.4767777684       29.6899948126       -0.3092639848  MEMB      92              0.0000000000
     10633        92  SAPC      C317           37.8217839433       28.9045822955       -1.2823863921  MEMB      92              0.0000000000
     10634        92  SAPC      H17X           37.2364062492       27.9605102240       -1.2628385620  MEMB      92              0.0000000000
     10635        92  SAPC      H17Y           38.3708683916       28.6933642269       -2.2248370629  MEMB      92              0.0000000000
     10636        92  SAPC      C318           36.9090373981       30.0891342764       -1.6145680573  MEMB      92              0.0000000000
     10637        92  SAPC      H18X           37.4697776669       31.0324904250       -1.4414480587  MEMB      92              0.0000000000
     10638        92  SAPC      H18Y           36.0423097248       30.1287395502       -0.9206389755  MEMB      92              0.0000000000
     10639        92  SAPC      H18Z           36.5994091106       29.9573804561       -2.6733841822  MEMB      92              0.0000000000
     10640        93  CHL1      C3             28.1331834648      -36.2693701321       17.3339250000  MEMB      93              0.0000000000
     10641        93  CHL1      H3             27.8635431984      -37.3436272550       17.2468350000  MEMB      93              0.0000000000
     10642        93  CHL1      O3             28.4550483352      -35.9956062679       18.6660750000  MEMB      93              0.0000000000
     10643        93  CHL1      H3'            27.7996846459      -36.3865615426       19.2485350000  MEMB      93              0.0000000000
     10644        93  CHL1      C4             29.3625113698      -35.7834103939       16.5913250000  MEMB      93              0.0000000000
     10645        93  CHL1      H4A            29.5595190466      -34.7571360192       16.9685050000  MEMB      93              0.0000000000
     10646        93  CHL1      H4B            30.2169217945      -36.4483116346       16.8407550000  MEMB      93              0.0000000000
     10647        93  CHL1      C5             29.1374685385      -35.7691509477       15.0795950000  MEMB      93              0.0000000000
     10648        93  CHL1      C6             29.9280786420      -36.4901704841       14.3125150000  MEMB      93              0.0000000000
     10649        93  CHL1      H6             30.7256343309      -37.0990323608       14.7632750000  MEMB      93              0.0000000000
     10650        93  CHL1      C7             29.8586369949      -36.4754858509       12.8177850000  MEMB      93              0.0000000000
     10651        93  CHL1      H7A            30.8522316580      -36.5594568197       12.3278550000  MEMB      93              0.0000000000
     10652        93  CHL1      H7B            29.2610899539      -37.3110634348       12.3946250000  MEMB      93              0.0000000000
     10653        93  CHL1      C8             29.0473664499      -35.2426823562       12.2588050000  MEMB      93              0.0000000000
     10654        93  CHL1      H8             29.6834504093      -34.3605375432       12.4858150000  MEMB      93              0.0000000000
     10655        93  CHL1      C14            28.7331432159      -35.4734998691       10.7675150000  MEMB      93              0.0000000000
     10656        93  CHL1      H14            28.0775752630      -36.3703745156       10.7540650000  MEMB      93              0.0000000000
     10657        93  CHL1      C15            29.8771728321      -35.7532521173        9.8137850000  MEMB      93              0.0000000000
     10658        93  CHL1      H15A           30.6555103844      -34.9808117678        9.9922950000  MEMB      93              0.0000000000
     10659        93  CHL1      H15B           30.4717318619      -36.6888867978        9.8873750000  MEMB      93              0.0000000000
     10660        93  CHL1      C16            29.2200158910      -35.4736397657        8.4091450000  MEMB      93              0.0000000000
     10661        93  CHL1      H16A           29.9188243156      -34.7644550115        7.9161450000  MEMB      93              0.0000000000
     10662        93  CHL1      H16B           29.1937125129      -36.4129968820        7.8165050000  MEMB      93              0.0000000000
     10663        93  CHL1      C17            27.8197084927      -34.7750024815        8.6983750000  MEMB      93              0.0000000000
     10664        93  CHL1      H17            27.0480482686      -35.5654357988        8.5796550000  MEMB      93              0.0000000000
     10665        93  CHL1      C13            27.8979022638      -34.3112708952       10.1480550000  MEMB      93              0.0000000000
     10666        93  CHL1      C18            28.6814950272      -32.9618085935       10.1510450000  MEMB      93              0.0000000000
     10667        93  CHL1      H18A           29.2642514868      -32.6615251926       11.0480050000  MEMB      93              0.0000000000
     10668        93  CHL1      H18B           29.5569069324      -33.1413307514        9.4909250000  MEMB      93              0.0000000000
     10669        93  CHL1      H18C           28.0746607231      -32.1757384025        9.6528750000  MEMB      93              0.0000000000
     10670        93  CHL1      C12            26.6423214809      -34.2860531860       10.9580250000  MEMB      93              0.0000000000
     10671        93  CHL1      H12A           25.9570405276      -33.5961430087       10.4206950000  MEMB      93              0.0000000000
     10672        93  CHL1      H12B           26.1461682612      -35.2800880638       10.9657750000  MEMB      93              0.0000000000
     10673        93  CHL1      C11            26.9025460081      -33.8791486286       12.4215250000  MEMB      93              0.0000000000
     10674        93  CHL1      H11A           27.4438861066      -32.9092009379       12.4435150000  MEMB      93              0.0000000000
     10675        93  CHL1      H11B           25.8656494104      -33.7306853210       12.7918150000  MEMB      93              0.0000000000
     10676        93  CHL1      C9             27.7220730443      -35.0150317083       13.0826950000  MEMB      93              0.0000000000
     10677        93  CHL1      H9             27.1860263728      -35.9668909460       12.8804050000  MEMB      93              0.0000000000
     10678        93  CHL1      C10            27.9804384288      -34.9045663921       14.6242450000  MEMB      93              0.0000000000
     10679        93  CHL1      C19            28.2136815136      -33.4375755538       14.8839550000  MEMB      93              0.0000000000
     10680        93  CHL1      H19A           27.2317678028      -32.9203899944       14.9357450000  MEMB      93              0.0000000000
     10681        93  CHL1      H19B           28.6152135140      -33.1569438079       15.8811250000  MEMB      93              0.0000000000
     10682        93  CHL1      H19C           28.9003585773      -32.9241671901       14.1774050000  MEMB      93              0.0000000000
     10683        93  CHL1      C1             26.7237531943      -35.4926833450       15.3491650000  MEMB      93              0.0000000000
     10684        93  CHL1      H1A            25.9314022539      -34.7282253235       15.2004650000  MEMB      93              0.0000000000
     10685        93  CHL1      H1B            26.4798050183      -36.5146488875       14.9880750000  MEMB      93              0.0000000000
     10686        93  CHL1      C2             26.8838705067      -35.4850724023       16.9185350000  MEMB      93              0.0000000000
     10687        93  CHL1      H2A            25.9843709878      -35.7750803089       17.5025850000  MEMB      93              0.0000000000
     10688        93  CHL1      H2B            26.9964965128      -34.4441273576       17.2901150000  MEMB      93              0.0000000000
     10689        93  CHL1      C20            27.4824545969      -33.8060641772        7.5388750000  MEMB      93              0.0000000000
     10690        93  CHL1      H20            28.2721460023      -33.0322225356        7.4298850000  MEMB      93              0.0000000000
     10691        93  CHL1      C21            26.1571560024      -33.1919555501        7.6579750000  MEMB      93              0.0000000000
     10692        93  CHL1      H21A           25.3568724337      -33.9487904115        7.5128550000  MEMB      93              0.0000000000
     10693        93  CHL1      H21B           26.0179874737      -32.3821744695        6.9101750000  MEMB      93              0.0000000000
     10694        93  CHL1      H21C           25.9891008126      -32.6628750405        8.6203450000  MEMB      93              0.0000000000
     10695        93  CHL1      C22            27.6030157715      -34.5295252348        6.1663350000  MEMB      93              0.0000000000
     10696        93  CHL1      H22A           28.6842423392      -34.6079046308        5.9231550000  MEMB      93              0.0000000000
     10697        93  CHL1      H22B           27.1217417019      -35.5283908571        6.2367750000  MEMB      93              0.0000000000
     10698        93  CHL1      C23            27.0051525905      -33.8855484830        4.9075450000  MEMB      93              0.0000000000
     10699        93  CHL1      H23A           25.9109764691      -33.7435996638        5.0377150000  MEMB      93              0.0000000000
     10700        93  CHL1      H23B           27.4376588137      -32.8793869056        4.7207450000  MEMB      93              0.0000000000
     10701        93  CHL1      C24            27.1793115574      -34.9502818997        3.7884550000  MEMB      93              0.0000000000
     10702        93  CHL1      H24A           28.2567081487      -34.8515583278        3.5358950000  MEMB      93              0.0000000000
     10703        93  CHL1      H24B           26.8124921238      -35.9649577339        4.0534050000  MEMB      93              0.0000000000
     10704        93  CHL1      C25            26.5739536831      -34.4995336346        2.4402650000  MEMB      93              0.0000000000
     10705        93  CHL1      H25            26.9396114126      -33.4773605647        2.2040950000  MEMB      93              0.0000000000
     10706        93  CHL1      C26            26.9438923048      -35.4658920175        1.3038950000  MEMB      93              0.0000000000
     10707        93  CHL1      H26A           26.6597375022      -36.5066532610        1.5692150000  MEMB      93              0.0000000000
     10708        93  CHL1      H26B           26.5304376139      -35.1449905956        0.3239050000  MEMB      93              0.0000000000
     10709        93  CHL1      H26C           28.0312647546      -35.3952394189        1.0872050000  MEMB      93              0.0000000000
     10710        93  CHL1      C27            25.0633737455      -34.4293918549        2.4196550000  MEMB      93              0.0000000000
     10711        93  CHL1      H27A           24.6998623689      -34.0291461291        1.4490950000  MEMB      93              0.0000000000
     10712        93  CHL1      H27B           24.6709955569      -35.4457433213        2.6373450000  MEMB      93              0.0000000000
     10713        93  CHL1      H27C           24.6248920941      -33.7723888928        3.2009350000  MEMB      93              0.0000000000
     10714        94  SAPC      N              36.8871448500      -30.5659413433       19.6949989079  MEMB      94              0.0000000000
     10715        94  SAPC      C12            37.4048749439      -31.6144039424       20.6937083594  MEMB      94              0.0000000000
     10716        94  SAPC      H12A           37.5627115795      -31.1344085709       21.6482197251  MEMB      94              0.0000000000
     10717        94  SAPC      H12B           38.2907725342      -32.0368221434       20.2429885116  MEMB      94              0.0000000000
     10718        94  SAPC      C13            35.5652230674      -30.0780739165       20.2356364113  MEMB      94              0.0000000000
     10719        94  SAPC      H13A           34.7786765380      -30.8032218398       20.0876325475  MEMB      94              0.0000000000
     10720        94  SAPC      H13B           35.6813116243      -29.9277307879       21.2988016638  MEMB      94              0.0000000000
     10721        94  SAPC      H13C           35.2770695800      -29.1021598802       19.8737533532  MEMB      94              0.0000000000
     10722        94  SAPC      C14            37.8646875167      -29.4954550777       19.5885686052  MEMB      94              0.0000000000
     10723        94  SAPC      H14A           38.2005953013      -29.2365277108       20.5818070212  MEMB      94              0.0000000000
     10724        94  SAPC      H14B           38.7223401767      -29.7543444429       18.9854031489  MEMB      94              0.0000000000
     10725        94  SAPC      H14C           37.3718715057      -28.6825989037       19.0759309419  MEMB      94              0.0000000000
     10726        94  SAPC      C15            36.6993938824      -31.1791668172       18.3285292197  MEMB      94              0.0000000000
     10727        94  SAPC      H15A           37.5530931950      -31.8040620893       18.1114966686  MEMB      94              0.0000000000
     10728        94  SAPC      H15B           35.8754517053      -31.8594617899       18.4857491216  MEMB      94              0.0000000000
     10729        94  SAPC      H15C           36.6750005644      -30.4250131289       17.5558344662  MEMB      94              0.0000000000
     10730        94  SAPC      C11            36.4823640269      -32.8459728090       21.0260038838  MEMB      94              0.0000000000
     10731        94  SAPC      H11A           35.7666659332      -32.4813115737       21.7935450421  MEMB      94              0.0000000000
     10732        94  SAPC      H11B           37.0718007535      -33.5962066417       21.5952441898  MEMB      94              0.0000000000
     10733        94  SAPC      P              34.2823191680      -33.9183224054       20.1320269995  MEMB      94              0.0000000000
     10734        94  SAPC      O13            34.0802632634      -34.5661783163       21.5173341824  MEMB      94              0.0000000000
     10735        94  SAPC      O14            33.3565279937      -32.7698616093       19.8209012396  MEMB      94              0.0000000000
     10736        94  SAPC      O12            35.7896146760      -33.4391984568       19.9429559838  MEMB      94              0.0000000000
     10737        94  SAPC      O11            34.0415661659      -35.0200132847       19.0193362011  MEMB      94              0.0000000000
     10738        94  SAPC      C1             34.0183531272      -36.4088704569       19.4529133473  MEMB      94              0.0000000000
     10739        94  SAPC      HA             35.0471919986      -36.6532024036       19.7936675896  MEMB      94              0.0000000000
     10740        94  SAPC      HB             33.2448543285      -36.4457959755       20.2495669472  MEMB      94              0.0000000000
     10741        94  SAPC      C2             33.5904602753      -37.2770728810       18.2466943789  MEMB      94              0.0000000000
     10742        94  SAPC      HS             33.7621922457      -38.2840106742       18.6836222203  MEMB      94              0.0000000000
     10743        94  SAPC      O21            34.4041862067      -37.0394833446       17.1009742880  MEMB      94              0.0000000000
     10744        94  SAPC      C21            35.6639391458      -37.2698547327       17.0825228197  MEMB      94              0.0000000000
     10745        94  SAPC      O22            36.3999263337      -37.6864590039       17.9205294835  MEMB      94              0.0000000000
     10746        94  SAPC      C22            36.1710370450      -37.0075958999       15.6509654804  MEMB      94              0.0000000000
     10747        94  SAPC      H2R            37.2781676448      -37.0910065040       15.6106448885  MEMB      94              0.0000000000
     10748        94  SAPC      H2S            35.6507678883      -37.7319159836       14.9883936357  MEMB      94              0.0000000000
     10749        94  SAPC      C3             32.1130068961      -37.0315172004       17.8571313105  MEMB      94              0.0000000000
     10750        94  SAPC      HX             31.4224337866      -37.2403049763       18.7020204117  MEMB      94              0.0000000000
     10751        94  SAPC      HY             31.8473712694      -37.8317592439       17.1336870971  MEMB      94              0.0000000000
     10752        94  SAPC      O31            31.8230969602      -35.6961816658       17.3613527386  MEMB      94              0.0000000000
     10753        94  SAPC      C31            32.0664862035      -35.3773897289       16.0973000168  MEMB      94              0.0000000000
     10754        94  SAPC      O32            32.1191521026      -36.1250008968       15.1459648430  MEMB      94              0.0000000000
     10755        94  SAPC      C32            32.0112685577      -33.8659628776       16.0452435972  MEMB      94              0.0000000000
     10756        94  SAPC      H2X            32.9803990720      -33.4253818261       16.3630409392  MEMB      94              0.0000000000
     10757        94  SAPC      H2Y            31.1326644832      -33.4920973510       16.6132229827  MEMB      94              0.0000000000
     10758        94  SAPC      C23            35.7072858805      -35.5836006021       15.1144646537  MEMB      94              0.0000000000
     10759        94  SAPC      H3R            34.6266419970      -35.7401642999       14.9094827318  MEMB      94              0.0000000000
     10760        94  SAPC      H3S            36.1591407459      -35.2278703338       14.1638836771  MEMB      94              0.0000000000
     10761        94  SAPC      C24            35.8742689022      -34.3500907884       16.0456424491  MEMB      94              0.0000000000
     10762        94  SAPC      H4R            35.2296739739      -34.4700139656       16.9425462938  MEMB      94              0.0000000000
     10763        94  SAPC      H4S            35.4908235984      -33.4499774758       15.5192519590  MEMB      94              0.0000000000
     10764        94  SAPC      C25            37.4139773940      -34.1838809435       16.2559689711  MEMB      94              0.0000000000
     10765        94  SAPC      H5R            37.8265661621      -34.7801069203       17.0831841152  MEMB      94              0.0000000000
     10766        94  SAPC      C26            38.2693433642      -33.4831271974       15.4886516965  MEMB      94              0.0000000000
     10767        94  SAPC      H6R            39.3573558714      -33.5673149820       15.6270020563  MEMB      94              0.0000000000
     10768        94  SAPC      C27            37.7662664423      -32.7019540932       14.3264547001  MEMB      94              0.0000000000
     10769        94  SAPC      H7R            37.5965086449      -31.6883873014       14.7485747644  MEMB      94              0.0000000000
     10770        94  SAPC      H7S            36.7405246680      -32.9411247177       13.9729409890  MEMB      94              0.0000000000
     10771        94  SAPC      C28            38.8429208805      -32.7606830374       13.3104350445  MEMB      94              0.0000000000
     10772        94  SAPC      H8R            39.8352407305      -32.4126627727       13.6332080591  MEMB      94              0.0000000000
     10773        94  SAPC      C29            38.7401923465      -33.3244211420       12.0913118310  MEMB      94              0.0000000000
     10774        94  SAPC      H9R            39.5911128303      -33.2167279729       11.4025911625  MEMB      94              0.0000000000
     10775        94  SAPC      C210           37.5696954260      -34.0944241598       11.5787565332  MEMB      94              0.0000000000
     10776        94  SAPC      H10R           36.7154568298      -33.3841801841       11.5910507620  MEMB      94              0.0000000000
     10777        94  SAPC      H10S           37.3573257828      -34.9260200917       12.2842122988  MEMB      94              0.0000000000
     10778        94  SAPC      C211           37.8010419965      -34.7507328976       10.2217034686  MEMB      94              0.0000000000
     10779        94  SAPC      H11R           38.8220975467      -35.1357334989       10.0830680057  MEMB      94              0.0000000000
     10780        94  SAPC      C212           36.8449600710      -35.1273864480        9.3880433570  MEMB      94              0.0000000000
     10781        94  SAPC      H12R           37.0577262486      -35.7032314703        8.4752821119  MEMB      94              0.0000000000
     10782        94  SAPC      C213           35.4271394830      -34.9860956612        9.6958705463  MEMB      94              0.0000000000
     10783        94  SAPC      H13R           35.2307931795      -34.3923453802       10.6141459547  MEMB      94              0.0000000000
     10784        94  SAPC      H13S           34.9985726356      -36.0042791243        9.8139977690  MEMB      94              0.0000000000
     10785        94  SAPC      C214           34.4600953573      -34.3590640240        8.6978964960  MEMB      94              0.0000000000
     10786        94  SAPC      H14R           34.7229439386      -33.3037849930        8.5326792349  MEMB      94              0.0000000000
     10787        94  SAPC      C215           33.5298314326      -35.0094351593        8.0200803659  MEMB      94              0.0000000000
     10788        94  SAPC      H15R           32.8794456645      -34.4212320787        7.3559907548  MEMB      94              0.0000000000
     10789        94  SAPC      C216           33.1938053568      -36.4365210865        8.1269496794  MEMB      94              0.0000000000
     10790        94  SAPC      H16R           32.4410755176      -36.5243281702        8.9393585864  MEMB      94              0.0000000000
     10791        94  SAPC      H16S           34.0482080204      -37.1455880966        8.1662074262  MEMB      94              0.0000000000
     10792        94  SAPC      C217           32.3767030764      -37.0538701927        6.9177639643  MEMB      94              0.0000000000
     10793        94  SAPC      H17R           31.5067867040      -36.3866229380        6.7379087182  MEMB      94              0.0000000000
     10794        94  SAPC      H17S           31.9502267769      -38.0623803752        7.1057699739  MEMB      94              0.0000000000
     10795        94  SAPC      C218           33.1332153411      -37.0884719911        5.6141946629  MEMB      94              0.0000000000
     10796        94  SAPC      H18R           33.6288518903      -38.0430851593        5.3360242321  MEMB      94              0.0000000000
     10797        94  SAPC      H18S           33.9486572701      -36.3578007376        5.4257937362  MEMB      94              0.0000000000
     10798        94  SAPC      C219           32.1102759430      -36.8943357212        4.4388112611  MEMB      94              0.0000000000
     10799        94  SAPC      H19R           31.7553062101      -35.8439711008        4.5098867361  MEMB      94              0.0000000000
     10800        94  SAPC      H19S           31.2417538022      -37.5559737676        4.6442992851  MEMB      94              0.0000000000
     10801        94  SAPC      C220           32.5107799521      -37.0162468867        3.0075375557  MEMB      94              0.0000000000
     10802        94  SAPC      H20R           33.4473511581      -36.4627216403        2.7822262714  MEMB      94              0.0000000000
     10803        94  SAPC      H20S           31.7387868821      -36.5511866670        2.3578702307  MEMB      94              0.0000000000
     10804        94  SAPC      H20T           32.5256352224      -38.1068155710        2.7959697303  MEMB      94              0.0000000000
     10805        94  SAPC      C33            31.8417076011      -33.3936479842       14.5842790255  MEMB      94              0.0000000000
     10806        94  SAPC      H3X            31.5710958818      -34.3002519827       14.0019050577  MEMB      94              0.0000000000
     10807        94  SAPC      H3Y            32.7976833977      -32.9898790524       14.1875399102  MEMB      94              0.0000000000
     10808        94  SAPC      C34            30.8051410015      -32.3294791677       14.3793933801  MEMB      94              0.0000000000
     10809        94  SAPC      H4X            30.9412663974      -31.3705164988       14.9236191746  MEMB      94              0.0000000000
     10810        94  SAPC      H4Y            29.8535492838      -32.7148105850       14.8040269437  MEMB      94              0.0000000000
     10811        94  SAPC      C35            30.6675236898      -31.8402314019       12.9081270651  MEMB      94              0.0000000000
     10812        94  SAPC      H5X            29.9005368447      -31.0364651950       12.9045935608  MEMB      94              0.0000000000
     10813        94  SAPC      H5Y            30.2190192624      -32.6106802756       12.2451229652  MEMB      94              0.0000000000
     10814        94  SAPC      C36            31.9233005952      -31.0768545171       12.2740408174  MEMB      94              0.0000000000
     10815        94  SAPC      H6X            32.6305117440      -30.7134988111       13.0500212704  MEMB      94              0.0000000000
     10816        94  SAPC      H6Y            31.4129021496      -30.2912031147       11.6769086445  MEMB      94              0.0000000000
     10817        94  SAPC      C37            32.8295642878      -32.0440014441       11.4574049374  MEMB      94              0.0000000000
     10818        94  SAPC      H7X            32.1158098833      -32.4540415373       10.7112529916  MEMB      94              0.0000000000
     10819        94  SAPC      H7Y            33.1976454924      -32.8565358086       12.1196924183  MEMB      94              0.0000000000
     10820        94  SAPC      C38            34.0177109155      -31.2525596822       10.7708292399  MEMB      94              0.0000000000
     10821        94  SAPC      H8X            34.2714548351      -31.8903495283        9.8972387228  MEMB      94              0.0000000000
     10822        94  SAPC      H8Y            34.7549616152      -31.0262958408       11.5705711655  MEMB      94              0.0000000000
     10823        94  SAPC      C39            33.8387532277      -29.8423774270       10.0862741834  MEMB      94              0.0000000000
     10824        94  SAPC      H9X            34.8108441221      -29.5497105193        9.6349363067  MEMB      94              0.0000000000
     10825        94  SAPC      H9Y            33.6905206065      -29.0652330841       10.8662710731  MEMB      94              0.0000000000
     10826        94  SAPC      C310           32.7890620037      -29.8997114852        8.8699139916  MEMB      94              0.0000000000
     10827        94  SAPC      H10X           32.7478320176      -28.8529958852        8.4997689190  MEMB      94              0.0000000000
     10828        94  SAPC      H10Y           31.7756286331      -30.0434269933        9.3019089531  MEMB      94              0.0000000000
     10829        94  SAPC      C311           32.9210628255      -30.9718444058        7.8516746253  MEMB      94              0.0000000000
     10830        94  SAPC      H11X           31.9887509967      -31.0837337095        7.2578768359  MEMB      94              0.0000000000
     10831        94  SAPC      H11Y           32.9767959322      -31.9087578657        8.4461555685  MEMB      94              0.0000000000
     10832        94  SAPC      C312           34.1403398439      -30.6727850230        6.9471940871  MEMB      94              0.0000000000
     10833        94  SAPC      H12X           34.9908153945      -30.8720762724        7.6337043337  MEMB      94              0.0000000000
     10834        94  SAPC      H12Y           34.2278688083      -29.6040261868        6.6566539393  MEMB      94              0.0000000000
     10835        94  SAPC      C313           34.2519711454      -31.6152107330        5.8242192834  MEMB      94              0.0000000000
     10836        94  SAPC      H13X           33.9454817737      -31.1107442725        4.8829980356  MEMB      94              0.0000000000
     10837        94  SAPC      H13Y           33.5125722862      -32.4381314091        5.9262582255  MEMB      94              0.0000000000
     10838        94  SAPC      C314           35.6497109988      -32.1672517576        5.6427214460  MEMB      94              0.0000000000
     10839        94  SAPC      H14X           35.8489010747      -32.9084511877        6.4460066342  MEMB      94              0.0000000000
     10840        94  SAPC      H14Y           36.4389973152      -31.3877855653        5.7042071161  MEMB      94              0.0000000000
     10841        94  SAPC      C315           35.6571599800      -32.9130947553        4.3234907093  MEMB      94              0.0000000000
     10842        94  SAPC      H15X           35.3666755269      -32.2269086100        3.4994215695  MEMB      94              0.0000000000
     10843        94  SAPC      H15Y           34.9608228684      -33.7787278940        4.3127793600  MEMB      94              0.0000000000
     10844        94  SAPC      C316           37.0519311046      -33.4030777506        4.0274670059  MEMB      94              0.0000000000
     10845        94  SAPC      H16X           37.6352232465      -33.4053190914        4.9730285210  MEMB      94              0.0000000000
     10846        94  SAPC      H16Y           37.5404902713      -32.8757667294        3.1803692060  MEMB      94              0.0000000000
     10847        94  SAPC      C317           37.0582007683      -34.8172912640        3.5435118746  MEMB      94              0.0000000000
     10848        94  SAPC      H17X           36.4841567576      -35.5162813399        4.1886540223  MEMB      94              0.0000000000
     10849        94  SAPC      H17Y           38.0962272859      -35.1988779162        3.4376200123  MEMB      94              0.0000000000
     10850        94  SAPC      C318           36.3903659651      -35.0163223735        2.2086391956  MEMB      94              0.0000000000
     10851        94  SAPC      H18X           36.8694375661      -34.3819654174        1.4324923358  MEMB      94              0.0000000000
     10852        94  SAPC      H18Y           35.3201593208      -34.7424230092        2.3267818904  MEMB      94              0.0000000000
     10853        94  SAPC      H18Z           36.5238811832      -36.0697488323        1.8818555362  MEMB      94              0.0000000000
     10854        95  SAPC      N              34.1625889578       33.5294988076       20.5940605429  MEMB      95              0.0000000000
     10855        95  SAPC      C12            34.9747007332       34.3000601985       19.5698800458  MEMB      95              0.0000000000
     10856        95  SAPC      H12A           35.4547661920       35.0910360636       20.1269207164  MEMB      95              0.0000000000
     10857        95  SAPC      H12B           34.2793943114       34.7483678889       18.8756401744  MEMB      95              0.0000000000
     10858        95  SAPC      C13            33.1139839909       34.4969284306       21.0470340702  MEMB      95              0.0000000000
     10859        95  SAPC      H13A           32.5347209186       34.0843815972       21.8598437384  MEMB      95              0.0000000000
     10860        95  SAPC      H13B           33.5045669585       35.3784088089       21.5336934958  MEMB      95              0.0000000000
     10861        95  SAPC      H13C           32.4465599581       34.7313564117       20.2309525927  MEMB      95              0.0000000000
     10862        95  SAPC      C14            33.5132108498       32.2745843079       20.0230262695  MEMB      95              0.0000000000
     10863        95  SAPC      H14A           32.7149167200       32.4536078388       19.3179891064  MEMB      95              0.0000000000
     10864        95  SAPC      H14B           34.2878544050       31.6597826990       19.5890375318  MEMB      95              0.0000000000
     10865        95  SAPC      H14C           33.2072730175       31.6722557790       20.8656427555  MEMB      95              0.0000000000
     10866        95  SAPC      C15            34.9870465738       33.0887543631       21.7292028707  MEMB      95              0.0000000000
     10867        95  SAPC      H15A           35.7726670437       32.5354266931       21.2362231868  MEMB      95              0.0000000000
     10868        95  SAPC      H15B           35.4751938670       33.9236383525       22.2099117478  MEMB      95              0.0000000000
     10869        95  SAPC      H15C           34.3885512861       32.4408180505       22.3524059796  MEMB      95              0.0000000000
     10870        95  SAPC      C11            36.0404884509       33.6467126984       18.6829793582  MEMB      95              0.0000000000
     10871        95  SAPC      H11A           36.4908839680       34.4539944554       18.0667318576  MEMB      95              0.0000000000
     10872        95  SAPC      H11B           35.6095440166       32.8306896989       18.0643403063  MEMB      95              0.0000000000
     10873        95  SAPC      P              38.3929230460       33.9001131188       19.7549410334  MEMB      95              0.0000000000
     10874        95  SAPC      O13            38.0676909328       35.1003661716       20.5081927159  MEMB      95              0.0000000000
     10875        95  SAPC      O14            39.4705449870       33.0537610153       20.3560294738  MEMB      95              0.0000000000
     10876        95  SAPC      O12            37.0762547217       33.0733717835       19.4763619294  MEMB      95              0.0000000000
     10877        95  SAPC      O11            38.8674215553       34.2879398980       18.2582916533  MEMB      95              0.0000000000
     10878        95  SAPC      C1             40.1966015401       34.8794626227       18.2042235102  MEMB      95              0.0000000000
     10879        95  SAPC      HA             40.1616442655       35.8609733737       18.7235843944  MEMB      95              0.0000000000
     10880        95  SAPC      HB             40.9971931647       34.3126423480       18.7258446708  MEMB      95              0.0000000000
     10881        95  SAPC      C2             40.7755511395       35.1932303972       16.7596241388  MEMB      95              0.0000000000
     10882        95  SAPC      HS             41.4121228741       36.0940382083       16.6267993612  MEMB      95              0.0000000000
     10883        95  SAPC      O21            39.7096672280       35.3945040164       15.9385911848  MEMB      95              0.0000000000
     10884        95  SAPC      C21            39.1415954646       36.6539008756       15.9302315114  MEMB      95              0.0000000000
     10885        95  SAPC      O22            39.4107009987       37.5280206772       16.7078485412  MEMB      95              0.0000000000
     10886        95  SAPC      C22            38.3764274430       36.8403224215       14.5820549778  MEMB      95              0.0000000000
     10887        95  SAPC      H2R            37.3170981450       36.5658745892       14.7739421296  MEMB      95              0.0000000000
     10888        95  SAPC      H2S            38.5736018302       37.8938651465       14.2896668383  MEMB      95              0.0000000000
     10889        95  SAPC      C3             41.5888046001       33.8843929609       16.2832719965  MEMB      95              0.0000000000
     10890        95  SAPC      HX             42.4497188469       33.8550590043       16.9849038238  MEMB      95              0.0000000000
     10891        95  SAPC      HY             41.9039948630       34.1176712172       15.2437734163  MEMB      95              0.0000000000
     10892        95  SAPC      O31            40.8305135753       32.7050609776       16.4954341896  MEMB      95              0.0000000000
     10893        95  SAPC      C31            41.0717500071       31.6495135621       15.6748081801  MEMB      95              0.0000000000
     10894        95  SAPC      O32            41.9732188722       31.6226957626       14.8645273427  MEMB      95              0.0000000000
     10895        95  SAPC      C32            40.2949185035       30.4912923589       16.1694324414  MEMB      95              0.0000000000
     10896        95  SAPC      H2X            40.8263602710       30.3164872685       17.1292936368  MEMB      95              0.0000000000
     10897        95  SAPC      H2Y            40.5090849120       29.7281311777       15.3909474155  MEMB      95              0.0000000000
     10898        95  SAPC      C23            38.9605319497       35.9365780124       13.4120182170  MEMB      95              0.0000000000
     10899        95  SAPC      H3R            38.1402238279       35.8862903734       12.6644307017  MEMB      95              0.0000000000
     10900        95  SAPC      H3S            39.1044854064       34.8590058474       13.6410081234  MEMB      95              0.0000000000
     10901        95  SAPC      C24            40.1835021380       36.6279226896       12.7267506690  MEMB      95              0.0000000000
     10902        95  SAPC      H4R            40.1494528656       37.7383643695       12.7357336381  MEMB      95              0.0000000000
     10903        95  SAPC      H4S            40.2787521090       36.3922873115       11.6452122693  MEMB      95              0.0000000000
     10904        95  SAPC      C25            41.5716547321       36.1191288644       13.2835337423  MEMB      95              0.0000000000
     10905        95  SAPC      H5R            41.8426713021       36.5750227485       14.2472302658  MEMB      95              0.0000000000
     10906        95  SAPC      C26            42.4180719856       35.1483668957       12.6985806574  MEMB      95              0.0000000000
     10907        95  SAPC      H6R            43.3836861879       34.9482891770       13.1859801546  MEMB      95              0.0000000000
     10908        95  SAPC      C27            42.4878452165       34.2256671668       11.4944381871  MEMB      95              0.0000000000
     10909        95  SAPC      H7R            43.1125033240       33.3373369067       11.7289429121  MEMB      95              0.0000000000
     10910        95  SAPC      H7S            43.0923831256       34.7382073496       10.7158767164  MEMB      95              0.0000000000
     10911        95  SAPC      C28            41.0874641157       33.9569344170       10.9625202898  MEMB      95              0.0000000000
     10912        95  SAPC      H8R            40.2944634458       34.1559810213       11.6984079253  MEMB      95              0.0000000000
     10913        95  SAPC      C29            40.8368296673       33.3789794007        9.7780578010  MEMB      95              0.0000000000
     10914        95  SAPC      H9R            39.8049203748       33.2887406409        9.4078955377  MEMB      95              0.0000000000
     10915        95  SAPC      C210           41.8376346386       32.8806879875        8.7398803318  MEMB      95              0.0000000000
     10916        95  SAPC      H10R           41.8166131449       31.7738540952        8.8336772833  MEMB      95              0.0000000000
     10917        95  SAPC      H10S           42.8601980494       33.2263262612        9.0029755879  MEMB      95              0.0000000000
     10918        95  SAPC      C211           41.6521537717       33.3392171814        7.3448920684  MEMB      95              0.0000000000
     10919        95  SAPC      H11R           41.3373335220       32.5843734463        6.6092972029  MEMB      95              0.0000000000
     10920        95  SAPC      C212           41.6466410024       34.5743250576        6.8440140721  MEMB      95              0.0000000000
     10921        95  SAPC      H12R           41.4662267507       34.7475216514        5.7728215070  MEMB      95              0.0000000000
     10922        95  SAPC      C213           41.7941087597       35.9132344470        7.5192003439  MEMB      95              0.0000000000
     10923        95  SAPC      H13R           42.7930539513       36.2586913655        7.1770177539  MEMB      95              0.0000000000
     10924        95  SAPC      H13S           41.8240507496       35.7594611239        8.6190997584  MEMB      95              0.0000000000
     10925        95  SAPC      C214           40.8290548943       36.9692535829        7.1833430309  MEMB      95              0.0000000000
     10926        95  SAPC      H14R           39.9831574081       37.1683173147        7.8577546915  MEMB      95              0.0000000000
     10927        95  SAPC      C215           40.6614198213       37.6664231066        6.0442080419  MEMB      95              0.0000000000
     10928        95  SAPC      H15R           39.9336504207       38.4521487577        5.7932367401  MEMB      95              0.0000000000
     10929        95  SAPC      C216           41.5835375634       37.3980086819        4.8300961046  MEMB      95              0.0000000000
     10930        95  SAPC      H16R           42.2475469285       36.5107992839        4.9092922424  MEMB      95              0.0000000000
     10931        95  SAPC      H16S           42.3506471022       38.1718064113        4.6130677886  MEMB      95              0.0000000000
     10932        95  SAPC      C217           40.6809463849       37.1909932822        3.5757456145  MEMB      95              0.0000000000
     10933        95  SAPC      H17R           40.3526608800       38.2062200562        3.2661280205  MEMB      95              0.0000000000
     10934        95  SAPC      H17S           39.8418807843       36.5150271228        3.8465971679  MEMB      95              0.0000000000
     10935        95  SAPC      C218           41.3762575081       36.6759977973        2.3333466297  MEMB      95              0.0000000000
     10936        95  SAPC      H18R           41.4284384288       35.5662595718        2.3422520750  MEMB      95              0.0000000000
     10937        95  SAPC      H18S           42.3851734736       37.1277824997        2.2224404503  MEMB      95              0.0000000000
     10938        95  SAPC      C219           40.5194468617       37.0750887914        1.1060257635  MEMB      95              0.0000000000
     10939        95  SAPC      H19R           40.4984315582       38.1829253403        1.0249266776  MEMB      95              0.0000000000
     10940        95  SAPC      H19S           39.4871560637       36.6660698928        1.1434491778  MEMB      95              0.0000000000
     10941        95  SAPC      C220           41.0873470889       36.4306116021       -0.2144504131  MEMB      95              0.0000000000
     10942        95  SAPC      H20R           40.4019185728       36.6272826481       -1.0664071817  MEMB      95              0.0000000000
     10943        95  SAPC      H20S           41.2235134458       35.3312822681       -0.1292777002  MEMB      95              0.0000000000
     10944        95  SAPC      H20T           42.1093906771       36.8436734628       -0.3527550180  MEMB      95              0.0000000000
     10945        95  SAPC      C33            38.7835497161       30.7416141397       16.2728461420  MEMB      95              0.0000000000
     10946        95  SAPC      H3X            38.7277531526       31.4271017204       17.1453793793  MEMB      95              0.0000000000
     10947        95  SAPC      H3Y            38.1807357835       29.8224650210       16.4344039689  MEMB      95              0.0000000000
     10948        95  SAPC      C34            38.1550556357       31.4907013303       15.0725308392  MEMB      95              0.0000000000
     10949        95  SAPC      H4X            38.5330132750       32.5354322191       15.0700045704  MEMB      95              0.0000000000
     10950        95  SAPC      H4Y            37.0639834805       31.4794833428       15.2817115244  MEMB      95              0.0000000000
     10951        95  SAPC      C35            38.3775840228       30.8690903795       13.6889818319  MEMB      95              0.0000000000
     10952        95  SAPC      H5X            38.0337605793       29.8131185352       13.6568880723  MEMB      95              0.0000000000
     10953        95  SAPC      H5Y            39.4678331393       30.8839350213       13.4757733487  MEMB      95              0.0000000000
     10954        95  SAPC      C36            37.6222694887       31.4499507781       12.5113408250  MEMB      95              0.0000000000
     10955        95  SAPC      H6X            38.0136099994       32.4880908439       12.4526989353  MEMB      95              0.0000000000
     10956        95  SAPC      H6Y            36.5321214433       31.5198789933       12.7138457084  MEMB      95              0.0000000000
     10957        95  SAPC      C37            38.0752324517       30.6160035505       11.3377767255  MEMB      95              0.0000000000
     10958        95  SAPC      H7X            37.5619056783       29.6400641767       11.4732714623  MEMB      95              0.0000000000
     10959        95  SAPC      H7Y            39.1705991145       30.4355842979       11.3818408087  MEMB      95              0.0000000000
     10960        95  SAPC      C38            37.5558152897       31.2038660349       10.0310847626  MEMB      95              0.0000000000
     10961        95  SAPC      H8X            37.8995737494       32.2305937421        9.7821246679  MEMB      95              0.0000000000
     10962        95  SAPC      H8Y            36.4490596680       31.2622835095        9.9536221229  MEMB      95              0.0000000000
     10963        95  SAPC      C39            38.0628138543       30.3881171497        8.8261829638  MEMB      95              0.0000000000
     10964        95  SAPC      H9X            37.7312384778       29.3398495558        8.9859136894  MEMB      95              0.0000000000
     10965        95  SAPC      H9Y            39.1480204929       30.3671061976        9.0632613022  MEMB      95              0.0000000000
     10966        95  SAPC      C310           37.7247537471       31.0156826789        7.5497342817  MEMB      95              0.0000000000
     10967        95  SAPC      H10X           38.1755856805       32.0142559692        7.3655515428  MEMB      95              0.0000000000
     10968        95  SAPC      H10Y           36.6476767870       31.2758844885        7.6304892948  MEMB      95              0.0000000000
     10969        95  SAPC      C311           38.1378033911       30.1749221441        6.3082799174  MEMB      95              0.0000000000
     10970        95  SAPC      H11X           37.6964232826       29.1582660103        6.3851895020  MEMB      95              0.0000000000
     10971        95  SAPC      H11Y           39.2381612331       30.0221069800        6.2948322635  MEMB      95              0.0000000000
     10972        95  SAPC      C312           37.7940764276       30.8354196770        4.9045993823  MEMB      95              0.0000000000
     10973        95  SAPC      H12X           37.9863859481       29.9848588355        4.2162066677  MEMB      95              0.0000000000
     10974        95  SAPC      H12Y           38.4833073250       31.6406572503        4.5716205393  MEMB      95              0.0000000000
     10975        95  SAPC      C313           36.3037121361       31.1141678177        4.6607968737  MEMB      95              0.0000000000
     10976        95  SAPC      H13X           35.9575855944       32.0032786095        5.2300063264  MEMB      95              0.0000000000
     10977        95  SAPC      H13Y           35.6688743475       30.3629747589        5.1775278615  MEMB      95              0.0000000000
     10978        95  SAPC      C314           35.7954387445       31.1862506642        3.2398055988  MEMB      95              0.0000000000
     10979        95  SAPC      H14X           34.6874572421       31.1353056887        3.3038552842  MEMB      95              0.0000000000
     10980        95  SAPC      H14Y           36.1604929752       30.3442532606        2.6136276069  MEMB      95              0.0000000000
     10981        95  SAPC      C315           36.1562266370       32.4202608885        2.4842726417  MEMB      95              0.0000000000
     10982        95  SAPC      H15X           35.6204804452       32.3985045723        1.5112240263  MEMB      95              0.0000000000
     10983        95  SAPC      H15Y           37.2438205148       32.5196226506        2.2803418866  MEMB      95              0.0000000000
     10984        95  SAPC      C316           35.6579833939       33.7913977880        3.0699583645  MEMB      95              0.0000000000
     10985        95  SAPC      H16X           36.2878694537       34.0385986171        3.9511254379  MEMB      95              0.0000000000
     10986        95  SAPC      H16Y           34.6149282651       33.7383012140        3.4488225196  MEMB      95              0.0000000000
     10987        95  SAPC      C317           35.7325697680       34.9855716052        2.0500741467  MEMB      95              0.0000000000
     10988        95  SAPC      H17X           35.0451839607       35.7664727053        2.4399675771  MEMB      95              0.0000000000
     10989        95  SAPC      H17Y           35.2417720080       34.7288305764        1.0869953717  MEMB      95              0.0000000000
     10990        95  SAPC      C318           37.0871674160       35.3858977564        1.5906146154  MEMB      95              0.0000000000
     10991        95  SAPC      H18X           37.0010123046       36.2304473756        0.8739326308  MEMB      95              0.0000000000
     10992        95  SAPC      H18Y           37.7244424534       34.6065457093        1.1207090974  MEMB      95              0.0000000000
     10993        95  SAPC      H18Z           37.7047128466       35.8335578743        2.3984258330  MEMB      95              0.0000000000
     10994        96  SAPS      N             -30.5740134117       36.8446143214       20.7194212392  MEMB      96              0.0000000000
     10995        96  SAPS      HN1           -30.3526758067       37.3190440959       19.8207967576  MEMB      96              0.0000000000
     10996        96  SAPS      HN2           -31.5844292122       36.8496814437       20.9656611412  MEMB      96              0.0000000000
     10997        96  SAPS      HN3           -30.0455238983       37.3649936959       21.4484646109  MEMB      96              0.0000000000
     10998        96  SAPS      C12           -30.1449012154       35.4109842928       20.6259885853  MEMB      96              0.0000000000
     10999        96  SAPS      H12A          -30.0496216590       35.1353143956       21.6658577653  MEMB      96              0.0000000000
     11000        96  SAPS      C13           -31.1188049912       34.3654050820       20.0432465843  MEMB      96              0.0000000000
     11001        96  SAPS      O13A          -32.2405532936       34.7749462376       19.6802968261  MEMB      96              0.0000000000
     11002        96  SAPS      O13B          -30.7976014440       33.1242568028       19.9316220624  MEMB      96              0.0000000000
     11003        96  SAPS      C11           -28.7913416608       35.1941706794       19.9045764168  MEMB      96              0.0000000000
     11004        96  SAPS      H11A          -28.7749028599       35.4013994362       18.8131979769  MEMB      96              0.0000000000
     11005        96  SAPS      H11B          -28.6503012294       34.0926194731       19.8727400244  MEMB      96              0.0000000000
     11006        96  SAPS      P             -27.1043862730       37.1792562472       19.8533261642  MEMB      96              0.0000000000
     11007        96  SAPS      O13           -28.2158854089       37.9606483244       19.2415459159  MEMB      96              0.0000000000
     11008        96  SAPS      O14           -26.1531451522       37.9686270677       20.6883930157  MEMB      96              0.0000000000
     11009        96  SAPS      O12           -27.7500172492       35.9522192604       20.6760385449  MEMB      96              0.0000000000
     11010        96  SAPS      O11           -26.2904195680       36.4550498604       18.6355445965  MEMB      96              0.0000000000
     11011        96  SAPS      C1            -25.2445867255       35.6299535202       19.0020135463  MEMB      96              0.0000000000
     11012        96  SAPS      HA            -24.3922751427       36.2994568662       19.2462500550  MEMB      96              0.0000000000
     11013        96  SAPS      HB            -25.5937113760       34.9296192020       19.7906609527  MEMB      96              0.0000000000
     11014        96  SAPS      C2            -24.9222568256       34.6434124158       17.7982234295  MEMB      96              0.0000000000
     11015        96  SAPS      HS            -24.2097393932       33.8460779452       18.0997159900  MEMB      96              0.0000000000
     11016        96  SAPS      O21           -24.4624903050       35.3369460483       16.6702457467  MEMB      96              0.0000000000
     11017        96  SAPS      C21           -23.4992712512       34.8049216242       15.8764683780  MEMB      96              0.0000000000
     11018        96  SAPS      O22           -22.8933398898       33.7617699462       16.0646993439  MEMB      96              0.0000000000
     11019        96  SAPS      C22           -23.2296804702       35.6570265135       14.7220366319  MEMB      96              0.0000000000
     11020        96  SAPS      H2R           -24.2061245289       36.0287632748       14.3442938651  MEMB      96              0.0000000000
     11021        96  SAPS      H2S           -22.5416229656       36.5034747163       14.9328040730  MEMB      96              0.0000000000
     11022        96  SAPS      C3            -26.2253727385       33.7626040129       17.3376941808  MEMB      96              0.0000000000
     11023        96  SAPS      HX            -26.5117806944       33.2517161282       18.2817733387  MEMB      96              0.0000000000
     11024        96  SAPS      HY            -25.7763850851       32.9871105476       16.6809289375  MEMB      96              0.0000000000
     11025        96  SAPS      O31           -27.1986595868       34.6102680320       16.7081639385  MEMB      96              0.0000000000
     11026        96  SAPS      C31           -28.1398944382       33.9821590801       16.1116559698  MEMB      96              0.0000000000
     11027        96  SAPS      O32           -28.2141983543       32.8084342544       15.9270468643  MEMB      96              0.0000000000
     11028        96  SAPS      C32           -29.1247220603       35.0785189860       15.5366967876  MEMB      96              0.0000000000
     11029        96  SAPS      H2X           -30.0647643681       34.8426054873       16.0798232288  MEMB      96              0.0000000000
     11030        96  SAPS      H2Y           -29.3181341344       34.8390199994       14.4691984176  MEMB      96              0.0000000000
     11031        96  SAPS      C23           -22.4722272911       34.8685993983       13.6137294152  MEMB      96              0.0000000000
     11032        96  SAPS      H3R           -21.5325776588       34.4656071564       14.0484453443  MEMB      96              0.0000000000
     11033        96  SAPS      H3S           -22.2375091817       35.5912328591       12.8031563605  MEMB      96              0.0000000000
     11034        96  SAPS      C24           -23.2594427266       33.7490772444       13.0110327734  MEMB      96              0.0000000000
     11035        96  SAPS      H4R           -23.6788334267       33.0492482793       13.7651356768  MEMB      96              0.0000000000
     11036        96  SAPS      H4S           -22.5222922261       33.2683480536       12.3329252696  MEMB      96              0.0000000000
     11037        96  SAPS      C25           -24.3706547646       34.3710279836       12.2398588100  MEMB      96              0.0000000000
     11038        96  SAPS      H5R           -25.3299192215       34.4608120636       12.7706606155  MEMB      96              0.0000000000
     11039        96  SAPS      C26           -24.2995017048       34.6520050708       10.9181594788  MEMB      96              0.0000000000
     11040        96  SAPS      H6R           -25.2196518464       35.0218319064       10.4421847363  MEMB      96              0.0000000000
     11041        96  SAPS      C27           -23.1883996711       34.4842912086        9.9086307927  MEMB      96              0.0000000000
     11042        96  SAPS      H7R           -23.4039562161       33.8848729729        8.9983812010  MEMB      96              0.0000000000
     11043        96  SAPS      H7S           -22.4797042711       33.8199633398       10.4478340865  MEMB      96              0.0000000000
     11044        96  SAPS      C28           -22.6347018804       35.8974800048        9.6016921779  MEMB      96              0.0000000000
     11045        96  SAPS      H8R           -22.1477826703       36.2886779394       10.5071615809  MEMB      96              0.0000000000
     11046        96  SAPS      C29           -22.6383142427       36.6168833326        8.4225337425  MEMB      96              0.0000000000
     11047        96  SAPS      H9R           -22.0554229607       37.5444203596        8.5220996555  MEMB      96              0.0000000000
     11048        96  SAPS      C210          -23.1791250212       36.3705482777        7.0491632878  MEMB      96              0.0000000000
     11049        96  SAPS      H10R          -24.0210277322       37.0538412422        6.8070237311  MEMB      96              0.0000000000
     11050        96  SAPS      H10S          -23.6181949389       35.3674195200        6.8613564998  MEMB      96              0.0000000000
     11051        96  SAPS      C211          -22.0784608407       36.5487326192        6.0321240835  MEMB      96              0.0000000000
     11052        96  SAPS      H11R          -21.0735254903       36.9282651662        6.2688928770  MEMB      96              0.0000000000
     11053        96  SAPS      C212          -22.2657418336       36.3330973414        4.6957688886  MEMB      96              0.0000000000
     11054        96  SAPS      H12R          -21.4725596117       36.5251968882        3.9582330014  MEMB      96              0.0000000000
     11055        96  SAPS      C213          -23.6373106766       35.8839500615        4.1042734431  MEMB      96              0.0000000000
     11056        96  SAPS      H13R          -24.4148400057       35.6598275477        4.8655469528  MEMB      96              0.0000000000
     11057        96  SAPS      H13S          -23.4550435836       34.8803384613        3.6639751319  MEMB      96              0.0000000000
     11058        96  SAPS      C214          -24.2192097132       36.8862244540        3.1261322496  MEMB      96              0.0000000000
     11059        96  SAPS      H14R          -23.6050245477       37.7948890591        3.0418409736  MEMB      96              0.0000000000
     11060        96  SAPS      C215          -25.3781658404       36.6992993915        2.4396645114  MEMB      96              0.0000000000
     11061        96  SAPS      H15R          -25.9125208561       37.5328946669        1.9605155656  MEMB      96              0.0000000000
     11062        96  SAPS      C216          -26.3456424266       35.5261779181        2.5485463542  MEMB      96              0.0000000000
     11063        96  SAPS      H16R          -27.4001707898       35.8718373078        2.4955342847  MEMB      96              0.0000000000
     11064        96  SAPS      H16S          -26.2253646443       35.2157049754        3.6084815827  MEMB      96              0.0000000000
     11065        96  SAPS      C217          -26.1404689003       34.1760172621        1.8166179586  MEMB      96              0.0000000000
     11066        96  SAPS      H17R          -26.7392338012       33.3314888300        2.2198202689  MEMB      96              0.0000000000
     11067        96  SAPS      H17S          -25.0868293842       33.9299062455        2.0687967786  MEMB      96              0.0000000000
     11068        96  SAPS      C218          -26.3149816163       34.2496296089        0.3332337771  MEMB      96              0.0000000000
     11069        96  SAPS      H18R          -25.6018788642       34.9939682278       -0.0812120159  MEMB      96              0.0000000000
     11070        96  SAPS      H18S          -27.3651683318       34.3417983920       -0.0173857567  MEMB      96              0.0000000000
     11071        96  SAPS      C219          -25.7699365937       33.0898626750       -0.5391191762  MEMB      96              0.0000000000
     11072        96  SAPS      H19R          -24.6629979962       32.9974261823       -0.5606457721  MEMB      96              0.0000000000
     11073        96  SAPS      H19S          -26.0178922447       33.1850107672       -1.6179092730  MEMB      96              0.0000000000
     11074        96  SAPS      C220          -26.3016843745       31.7839846263       -0.1089824887  MEMB      96              0.0000000000
     11075        96  SAPS      H20R          -26.2035320111       31.1394866561       -1.0086004898  MEMB      96              0.0000000000
     11076        96  SAPS      H20S          -27.3884198750       31.8834267791        0.0994343698  MEMB      96              0.0000000000
     11077        96  SAPS      H20T          -25.8466059549       31.2280249781        0.7384443141  MEMB      96              0.0000000000
     11078        96  SAPS      C33           -28.6912276124       36.5668300568       15.8060414082  MEMB      96              0.0000000000
     11079        96  SAPS      H3X           -28.6080296471       36.7112638288       16.9044667028  MEMB      96              0.0000000000
     11080        96  SAPS      H3Y           -29.5601372868       37.1611119777       15.4508710198  MEMB      96              0.0000000000
     11081        96  SAPS      C34           -27.4637432133       37.1956561262       15.0339298095  MEMB      96              0.0000000000
     11082        96  SAPS      H4X           -26.4853749742       36.8160425768       15.3986351079  MEMB      96              0.0000000000
     11083        96  SAPS      H4Y           -27.5735937398       38.1769851104       15.5430927561  MEMB      96              0.0000000000
     11084        96  SAPS      C35           -27.6914925237       37.3971054056       13.5059306756  MEMB      96              0.0000000000
     11085        96  SAPS      H5X           -28.7620523147       37.5124538326       13.2322203248  MEMB      96              0.0000000000
     11086        96  SAPS      H5Y           -27.1909537027       36.5474824829       12.9941464086  MEMB      96              0.0000000000
     11087        96  SAPS      C36           -26.9718917747       38.6306223576       13.0338007383  MEMB      96              0.0000000000
     11088        96  SAPS      H6X           -25.8967679846       38.6018797955       13.3123751111  MEMB      96              0.0000000000
     11089        96  SAPS      H6Y           -27.3013502519       39.5521781022       13.5596457458  MEMB      96              0.0000000000
     11090        96  SAPS      C37           -27.2286488880       38.8656399437       11.5477977846  MEMB      96              0.0000000000
     11091        96  SAPS      H7X           -26.6792719662       39.7161261106       11.0904374839  MEMB      96              0.0000000000
     11092        96  SAPS      H7Y           -28.2969106390       39.1707272504       11.5400741771  MEMB      96              0.0000000000
     11093        96  SAPS      C38           -27.1194770182       37.6938261279       10.5494361097  MEMB      96              0.0000000000
     11094        96  SAPS      H8X           -27.8450297302       36.9053177169       10.8429470909  MEMB      96              0.0000000000
     11095        96  SAPS      H8Y           -26.0695389859       37.3311372636       10.5696251190  MEMB      96              0.0000000000
     11096        96  SAPS      C39           -27.5915567797       38.1401304616        9.1835168679  MEMB      96              0.0000000000
     11097        96  SAPS      H9X           -27.2497042277       39.1851930920        9.0244504266  MEMB      96              0.0000000000
     11098        96  SAPS      H9Y           -28.7006621621       38.1730564420        9.1276422451  MEMB      96              0.0000000000
     11099        96  SAPS      C310          -27.1534886484       37.3521549707        7.9023613084  MEMB      96              0.0000000000
     11100        96  SAPS      H10X          -26.0615405367       37.1917303258        8.0297745605  MEMB      96              0.0000000000
     11101        96  SAPS      H10Y          -27.4548847462       37.9700860589        7.0296401696  MEMB      96              0.0000000000
     11102        96  SAPS      C311          -27.6580094725       35.9028576930        7.7760179616  MEMB      96              0.0000000000
     11103        96  SAPS      H11X          -28.7327158398       35.9167392002        8.0573266785  MEMB      96              0.0000000000
     11104        96  SAPS      H11Y          -27.1899264240       35.2480079974        8.5417803054  MEMB      96              0.0000000000
     11105        96  SAPS      C312          -27.4448654994       35.1634005467        6.4432045452  MEMB      96              0.0000000000
     11106        96  SAPS      H12X          -26.4639864347       35.5492695921        6.0920598585  MEMB      96              0.0000000000
     11107        96  SAPS      H12Y          -28.0950052729       35.4746907306        5.5977828601  MEMB      96              0.0000000000
     11108        96  SAPS      C313          -27.2511583501       33.6078234874        6.6482509148  MEMB      96              0.0000000000
     11109        96  SAPS      H13X          -28.0458209983       33.2519537012        7.3383151037  MEMB      96              0.0000000000
     11110        96  SAPS      H13Y          -26.3895254781       33.3796605445        7.3114634680  MEMB      96              0.0000000000
     11111        96  SAPS      C314          -27.1754065164       32.7803003981        5.3212405500  MEMB      96              0.0000000000
     11112        96  SAPS      H14X          -26.2874500169       33.0196700618        4.6978967779  MEMB      96              0.0000000000
     11113        96  SAPS      H14Y          -28.0909539923       32.9294657920        4.7098127169  MEMB      96              0.0000000000
     11114        96  SAPS      C315          -27.0568680854       31.2819681966        5.4493520234  MEMB      96              0.0000000000
     11115        96  SAPS      H15X          -28.0101973012       30.9422160744        5.9076665169  MEMB      96              0.0000000000
     11116        96  SAPS      H15Y          -26.2379802077       31.0735386855        6.1706706511  MEMB      96              0.0000000000
     11117        96  SAPS      C316          -26.9153038305       30.6117273351        4.0369984710  MEMB      96              0.0000000000
     11118        96  SAPS      H16X          -27.7119443832       31.0593399126        3.4050752244  MEMB      96              0.0000000000
     11119        96  SAPS      H16Y          -27.1459107118       29.5268039984        4.1008942667  MEMB      96              0.0000000000
     11120        96  SAPS      C317          -25.5065878453       30.5261299811        3.3409468601  MEMB      96              0.0000000000
     11121        96  SAPS      H17X          -25.2119006868       31.5971462849        3.3208312386  MEMB      96              0.0000000000
     11122        96  SAPS      H17Y          -25.6340037768       30.1606917429        2.2995343806  MEMB      96              0.0000000000
     11123        96  SAPS      C318          -24.3757375869       29.8216796848        4.0870626424  MEMB      96              0.0000000000
     11124        96  SAPS      H18X          -23.4182043023       30.1203246041        3.6092954410  MEMB      96              0.0000000000
     11125        96  SAPS      H18Y          -24.6970378863       28.7637051705        3.9785395701  MEMB      96              0.0000000000
     11126        96  SAPS      H18Z          -24.5323929456       30.1293154842        5.1430634095  MEMB      96              0.0000000000
     11127        97  CHL1      C3              2.4252636288        0.7950564388      -17.3628400000  MEMB      97              0.0000000000
     11128        97  CHL1      H3              2.6291845493        1.8831724336      -17.4563700000  MEMB      97              0.0000000000
     11129        97  CHL1      O3              2.7944944512        0.3234007252      -18.6371600000  MEMB      97              0.0000000000
     11130        97  CHL1      H3'             3.6530604333        0.7226551074      -18.7955000000  MEMB      97              0.0000000000
     11131        97  CHL1      C4              3.4497924805        0.3794199841      -16.2257900000  MEMB      97              0.0000000000
     11132        97  CHL1      H4A             3.6818590007       -0.7046712235      -16.2980200000  MEMB      97              0.0000000000
     11133        97  CHL1      H4B             4.3702932944        0.9639735122      -16.4386100000  MEMB      97              0.0000000000
     11134        97  CHL1      C5              2.9679188301        0.8246820180      -14.8808800000  MEMB      97              0.0000000000
     11135        97  CHL1      C6              3.7509334847        1.6447690972      -14.1089700000  MEMB      97              0.0000000000
     11136        97  CHL1      H6              4.7758004527        1.9455784131      -14.3719500000  MEMB      97              0.0000000000
     11137        97  CHL1      C7              3.4673290213        1.7826193292      -12.6333000000  MEMB      97              0.0000000000
     11138        97  CHL1      H7A             4.3551067698        1.6286849371      -11.9833200000  MEMB      97              0.0000000000
     11139        97  CHL1      H7B             3.0862809513        2.8058887888      -12.4282200000  MEMB      97              0.0000000000
     11140        97  CHL1      C8              2.3750546213        0.8510272890      -12.1121300000  MEMB      97              0.0000000000
     11141        97  CHL1      H8              2.9220909265       -0.0993324430      -11.9335300000  MEMB      97              0.0000000000
     11142        97  CHL1      C14             1.8551223727        1.3891493660      -10.7797600000  MEMB      97              0.0000000000
     11143        97  CHL1      H14             1.3905058056        2.3977342658      -10.8144600000  MEMB      97              0.0000000000
     11144        97  CHL1      C15             2.9325419583        1.6866507398       -9.7413800000  MEMB      97              0.0000000000
     11145        97  CHL1      H15A            3.8843509860        1.1183434097       -9.6679600000  MEMB      97              0.0000000000
     11146        97  CHL1      H15B            3.3079118307        2.6840190476      -10.0554900000  MEMB      97              0.0000000000
     11147        97  CHL1      C16             2.2274848110        1.5886550177       -8.3677900000  MEMB      97              0.0000000000
     11148        97  CHL1      H16A            2.7437207801        0.8884460741       -7.6767500000  MEMB      97              0.0000000000
     11149        97  CHL1      H16B            2.2288522851        2.5193218177       -7.7610300000  MEMB      97              0.0000000000
     11150        97  CHL1      C17             0.8185862154        1.1859217032       -8.6837600000  MEMB      97              0.0000000000
     11151        97  CHL1      H17             0.2950873386        2.1656773781       -8.7023400000  MEMB      97              0.0000000000
     11152        97  CHL1      C13             0.8335806165        0.4611192342      -10.0862900000  MEMB      97              0.0000000000
     11153        97  CHL1      C18             1.3594206522       -0.9762583539       -9.9878200000  MEMB      97              0.0000000000
     11154        97  CHL1      H18A            2.1595539116       -1.0927541277       -9.2259000000  MEMB      97              0.0000000000
     11155        97  CHL1      H18B            0.5899759650       -1.5432524239       -9.4214300000  MEMB      97              0.0000000000
     11156        97  CHL1      H18C            1.4179904840       -1.5720499038      -10.9237300000  MEMB      97              0.0000000000
     11157        97  CHL1      C12            -0.4247166704        0.5841841528      -10.8819500000  MEMB      97              0.0000000000
     11158        97  CHL1      H12A           -1.1859315066       -0.1574921764      -10.5582300000  MEMB      97              0.0000000000
     11159        97  CHL1      H12B           -0.8299538597        1.6059762474      -10.7206200000  MEMB      97              0.0000000000
     11160        97  CHL1      C11            -0.1235247879        0.2258907044      -12.3892800000  MEMB      97              0.0000000000
     11161        97  CHL1      H11A           -0.0383362510       -0.8805027365      -12.3349700000  MEMB      97              0.0000000000
     11162        97  CHL1      H11B           -1.0229939346        0.4655442875      -12.9957800000  MEMB      97              0.0000000000
     11163        97  CHL1      C9              1.1654933822        0.8340323142      -13.0534300000  MEMB      97              0.0000000000
     11164        97  CHL1      H9              0.9204880732        1.9121938469      -13.1623300000  MEMB      97              0.0000000000
     11165        97  CHL1      C10             1.5646880125        0.3743282710      -14.4889400000  MEMB      97              0.0000000000
     11166        97  CHL1      C19             1.5262452987       -1.1926738566      -14.4869600000  MEMB      97              0.0000000000
     11167        97  CHL1      H19A            1.9056266809       -1.6466371244      -13.5465800000  MEMB      97              0.0000000000
     11168        97  CHL1      H19B            0.4561666215       -1.4878316726      -14.5331100000  MEMB      97              0.0000000000
     11169        97  CHL1      H19C            1.9513826530       -1.7048801928      -15.3764600000  MEMB      97              0.0000000000
     11170        97  CHL1      C1              0.5810238490        0.9401347179      -15.6096500000  MEMB      97              0.0000000000
     11171        97  CHL1      H1A            -0.4644849430        0.6772491677      -15.3411100000  MEMB      97              0.0000000000
     11172        97  CHL1      H1B             0.5957976865        2.0499491807      -15.6588100000  MEMB      97              0.0000000000
     11173        97  CHL1      C2              0.9406092731        0.5045513315      -16.9858700000  MEMB      97              0.0000000000
     11174        97  CHL1      H2A             0.2731452887        0.9507093736      -17.7538200000  MEMB      97              0.0000000000
     11175        97  CHL1      H2B             0.8464181601       -0.5980776691      -17.0842100000  MEMB      97              0.0000000000
     11176        97  CHL1      C20             0.2796416394        0.3891835261       -7.4875300000  MEMB      97              0.0000000000
     11177        97  CHL1      H20             1.0158978561       -0.4376751132       -7.3950800000  MEMB      97              0.0000000000
     11178        97  CHL1      C21            -1.1781136754       -0.2127210168       -7.6905800000  MEMB      97              0.0000000000
     11179        97  CHL1      H21A           -2.0339599210        0.3129531882       -7.2156800000  MEMB      97              0.0000000000
     11180        97  CHL1      H21B           -1.0619697223       -1.2787275203       -7.3999400000  MEMB      97              0.0000000000
     11181        97  CHL1      H21C           -1.5045346473       -0.1461083394       -8.7504600000  MEMB      97              0.0000000000
     11182        97  CHL1      C22             0.3679157753        1.1627594127       -6.1104000000  MEMB      97              0.0000000000
     11183        97  CHL1      H22A            1.3187163843        1.7003620109       -5.9072100000  MEMB      97              0.0000000000
     11184        97  CHL1      H22B           -0.5252711023        1.8217074594       -6.1584600000  MEMB      97              0.0000000000
     11185        97  CHL1      C23             0.1780030217        0.1449506768       -4.9863800000  MEMB      97              0.0000000000
     11186        97  CHL1      H23A           -0.7073929057       -0.4822124916       -5.2252400000  MEMB      97              0.0000000000
     11187        97  CHL1      H23B            1.0741056475       -0.5058856185       -4.8985500000  MEMB      97              0.0000000000
     11188        97  CHL1      C24            -0.2161551696        0.8295943174       -3.6773400000  MEMB      97              0.0000000000
     11189        97  CHL1      H24A            0.5419773983        1.6311658394       -3.5467400000  MEMB      97              0.0000000000
     11190        97  CHL1      H24B           -1.2131991683        1.3116782082       -3.7657300000  MEMB      97              0.0000000000
     11191        97  CHL1      C25            -0.2956079327       -0.0121793689       -2.3493500000  MEMB      97              0.0000000000
     11192        97  CHL1      H25            -0.2615058900        0.6056797633       -1.4266200000  MEMB      97              0.0000000000
     11193        97  CHL1      C26            -1.5728776496       -0.8530435957       -2.2053000000  MEMB      97              0.0000000000
     11194        97  CHL1      H26A           -2.4373410523       -0.1881416094       -2.4172400000  MEMB      97              0.0000000000
     11195        97  CHL1      H26B           -1.5821163869       -1.6504378928       -2.9788700000  MEMB      97              0.0000000000
     11196        97  CHL1      H26C           -1.7309885987       -1.4149635813       -1.2600100000  MEMB      97              0.0000000000
     11197        97  CHL1      C27             0.9639242860       -0.9189593172       -2.0742500000  MEMB      97              0.0000000000
     11198        97  CHL1      H27A            1.8603718082       -0.2751981143       -1.9466600000  MEMB      97              0.0000000000
     11199        97  CHL1      H27B            0.9057253651       -1.5685536264       -1.1748200000  MEMB      97              0.0000000000
     11200        97  CHL1      H27C            1.1373494467       -1.6890328247       -2.8560600000  MEMB      97              0.0000000000
     11201        98  OSM       N              -6.6296424361        1.0927223650      -21.5551573888  MEMB      98              0.0000000000
     11202        98  OSM       C15            -7.7662137590        0.3856433484      -22.1906336738  MEMB      98              0.0000000000
     11203        98  OSM       H15A           -7.5360579466       -0.5325591783      -22.7105688451  MEMB      98              0.0000000000
     11204        98  OSM       H15B           -8.2652391989        0.9858989415      -22.9370027191  MEMB      98              0.0000000000
     11205        98  OSM       H15C           -8.5280387403        0.1744139025      -21.4548315047  MEMB      98              0.0000000000
     11206        98  OSM       C14            -7.2359539462        2.1581196522      -20.7558295957  MEMB      98              0.0000000000
     11207        98  OSM       H14A           -7.6662616195        1.7348769805      -19.8602286866  MEMB      98              0.0000000000
     11208        98  OSM       H14B           -7.9114178087        2.6829174083      -21.4151746588  MEMB      98              0.0000000000
     11209        98  OSM       H14C           -6.4578247922        2.8658360436      -20.5107733288  MEMB      98              0.0000000000
     11210        98  OSM       C13            -5.7241347035        0.2632559278      -20.6423630742  MEMB      98              0.0000000000
     11211        98  OSM       H13A           -6.3800455654       -0.4472217925      -20.1613200067  MEMB      98              0.0000000000
     11212        98  OSM       H13B           -5.1887766646        0.9672212839      -20.0225046539  MEMB      98              0.0000000000
     11213        98  OSM       H13C           -4.9697415710       -0.2530932388      -21.2174063038  MEMB      98              0.0000000000
     11214        98  OSM       C12            -5.7946876426        1.7136731071      -22.5862140247  MEMB      98              0.0000000000
     11215        98  OSM       H12A           -6.4503013444        2.0758740975      -23.3642764642  MEMB      98              0.0000000000
     11216        98  OSM       H12B           -5.1351771513        0.9859552777      -23.0355164747  MEMB      98              0.0000000000
     11217        98  OSM       C11            -4.8759505462        2.8331559704      -22.0947703334  MEMB      98              0.0000000000
     11218        98  OSM       H11A           -5.4908481094        3.7358570026      -21.8914160505  MEMB      98              0.0000000000
     11219        98  OSM       H11B           -4.2782776815        3.1506919676      -22.9758373182  MEMB      98              0.0000000000
     11220        98  OSM       P              -3.3070756298        3.5025935962      -20.2357276463  MEMB      98              0.0000000000
     11221        98  OSM       O13            -2.2439426833        2.9312283492      -19.3886525174  MEMB      98              0.0000000000
     11222        98  OSM       O14            -2.9322157420        4.6643579409      -21.0741690436  MEMB      98              0.0000000000
     11223        98  OSM       O11            -4.5917201056        3.8100309289      -19.3492536767  MEMB      98              0.0000000000
     11224        98  OSM       O12            -3.9600061560        2.4543487571      -21.1272290255  MEMB      98              0.0000000000
     11225        98  OSM       C1S            -4.6634945276        4.9713801544      -18.5584061013  MEMB      98              0.0000000000
     11226        98  OSM       H1S            -5.3343017310        5.7370570838      -19.0034646964  MEMB      98              0.0000000000
     11227        98  OSM       H1T            -3.6868420204        5.4421254698      -18.3157750274  MEMB      98              0.0000000000
     11228        98  OSM       NF             -4.1523634975        3.9741855497      -16.4095586611  MEMB      98              0.0000000000
     11229        98  OSM       HNF            -4.3225017096        3.0128930579      -16.2071265079  MEMB      98              0.0000000000
     11230        98  OSM       C2S            -5.2284914968        4.5929055101      -17.1790149412  MEMB      98              0.0000000000
     11231        98  OSM       H2S            -5.5126650134        5.5801896082      -16.7561244175  MEMB      98              0.0000000000
     11232        98  OSM       C3S            -6.3884684714        3.6367008304      -17.2757578503  MEMB      98              0.0000000000
     11233        98  OSM       H3S            -6.1504334971        2.6233493632      -17.6640608770  MEMB      98              0.0000000000
     11234        98  OSM       O3             -7.4265826936        4.1502494308      -18.1984603770  MEMB      98              0.0000000000
     11235        98  OSM       HO3            -7.1601315972        5.0233788160      -18.4955272819  MEMB      98              0.0000000000
     11236        98  OSM       C4S            -6.9972954192        3.4415830752      -15.9151735056  MEMB      98              0.0000000000
     11237        98  OSM       H4S            -6.7347190103        4.2487262964      -15.2154783704  MEMB      98              0.0000000000
     11238        98  OSM       C5S            -7.4674882380        2.2075896126      -15.5687001758  MEMB      98              0.0000000000
     11239        98  OSM       H5S            -7.5039377424        1.4228915810      -16.3387134507  MEMB      98              0.0000000000
     11240        98  OSM       C6S            -8.0957599799        1.8310812485      -14.2207567406  MEMB      98              0.0000000000
     11241        98  OSM       H6S            -7.3175311196        1.1686848838      -13.7849681376  MEMB      98              0.0000000000
     11242        98  OSM       H6T            -9.0163257440        1.2129708637      -14.2901779017  MEMB      98              0.0000000000
     11243        98  OSM       C7S            -8.3376149953        2.8396013624      -13.1587295346  MEMB      98              0.0000000000
     11244        98  OSM       H7S            -9.2158593515        3.4435833823      -13.4721203460  MEMB      98              0.0000000000
     11245        98  OSM       H7T            -7.5210320514        3.5719766776      -12.9822643419  MEMB      98              0.0000000000
     11246        98  OSM       C8S            -8.6530458914        2.1316926243      -11.8220605034  MEMB      98              0.0000000000
     11247        98  OSM       H8S            -7.8211169570        1.4178515592      -11.6413783363  MEMB      98              0.0000000000
     11248        98  OSM       H8T            -9.5461866530        1.5026984661      -12.0245122144  MEMB      98              0.0000000000
     11249        98  OSM       C9S            -9.0927008319        3.0147766007      -10.6793933231  MEMB      98              0.0000000000
     11250        98  OSM       H9S           -10.1715471766        3.1622938975      -10.8999622166  MEMB      98              0.0000000000
     11251        98  OSM       H9T            -8.5497391231        3.9815402080      -10.6095243422  MEMB      98              0.0000000000
     11252        98  OSM       C10S           -9.1529479995        2.3386009331       -9.2580401883  MEMB      98              0.0000000000
     11253        98  OSM       H10S           -9.9070877887        1.5230686345       -9.2804315497  MEMB      98              0.0000000000
     11254        98  OSM       H10T           -9.4047950484        3.0857011850       -8.4752655022  MEMB      98              0.0000000000
     11255        98  OSM       C11S           -7.9309127790        1.5065491053       -8.9415928000  MEMB      98              0.0000000000
     11256        98  OSM       H11S           -7.1221120655        2.1542540990       -9.3423925581  MEMB      98              0.0000000000
     11257        98  OSM       H11T           -8.1146284412        0.5325467401       -9.4434783161  MEMB      98              0.0000000000
     11258        98  OSM       C12S           -7.6599880314        1.3055670558       -7.4239063694  MEMB      98              0.0000000000
     11259        98  OSM       H12S           -8.1982892371        0.4160975429       -7.0322475606  MEMB      98              0.0000000000
     11260        98  OSM       H12T           -7.9712568283        2.1248969345       -6.7411683774  MEMB      98              0.0000000000
     11261        98  OSM       C13S           -6.1829870248        0.8960627084       -7.1003936975  MEMB      98              0.0000000000
     11262        98  OSM       H13S           -5.5012558722        1.5556359116       -7.6787771259  MEMB      98              0.0000000000
     11263        98  OSM       H13T           -5.9926152945       -0.1576442895       -7.3966727334  MEMB      98              0.0000000000
     11264        98  OSM       C14S           -5.8928093450        1.0767688908       -5.5578885284  MEMB      98              0.0000000000
     11265        98  OSM       H14S           -6.4890661022        0.4559717402       -4.8554574155  MEMB      98              0.0000000000
     11266        98  OSM       H14T           -6.2006333064        2.1250048973       -5.3559818693  MEMB      98              0.0000000000
     11267        98  OSM       C15S           -4.3552241252        1.0660165817       -5.2692639162  MEMB      98              0.0000000000
     11268        98  OSM       H15S           -3.9368132030        1.9918968800       -5.7187069546  MEMB      98              0.0000000000
     11269        98  OSM       H15T           -3.8178149688        0.1934092939       -5.6982962157  MEMB      98              0.0000000000
     11270        98  OSM       C16S           -4.1498743642        1.2046383821       -3.7233135521  MEMB      98              0.0000000000
     11271        98  OSM       H16S           -4.6645270221        2.1607528008       -3.4881557247  MEMB      98              0.0000000000
     11272        98  OSM       H16T           -3.0510775373        1.1706951952       -3.5626453730  MEMB      98              0.0000000000
     11273        98  OSM       C17S           -4.7315458395        0.0447110535       -2.8923643811  MEMB      98              0.0000000000
     11274        98  OSM       H17S           -4.4718981663       -0.9054915982       -3.4061922060  MEMB      98              0.0000000000
     11275        98  OSM       H17T           -5.8326260526        0.1928171350       -2.8895439819  MEMB      98              0.0000000000
     11276        98  OSM       C18S           -4.2079945227        0.0635273245       -1.4290128079  MEMB      98              0.0000000000
     11277        98  OSM       H18S           -4.6811607757       -0.7318332296       -0.8143299640  MEMB      98              0.0000000000
     11278        98  OSM       H18T           -4.5288490291        0.9744421038       -0.8798246368  MEMB      98              0.0000000000
     11279        98  OSM       H18U           -3.1050897088       -0.0254525028       -1.3289901672  MEMB      98              0.0000000000
     11280        98  OSM       C1F            -3.1213784379        4.5412356587      -15.8106488399  MEMB      98              0.0000000000
     11281        98  OSM       OF             -2.7227546994        5.6475410286      -16.0287733139  MEMB      98              0.0000000000
     11282        98  OSM       C2F            -2.5504899491        3.6888089714      -14.6621278422  MEMB      98              0.0000000000
     11283        98  OSM       H2F            -1.4753474621        3.9412089423      -14.7833058240  MEMB      98              0.0000000000
     11284        98  OSM       H2G            -2.7637135763        2.6119954332      -14.8333856213  MEMB      98              0.0000000000
     11285        98  OSM       C3F            -2.9828816821        4.2514049400      -13.3968671738  MEMB      98              0.0000000000
     11286        98  OSM       H3F            -4.0772522044        4.0715722542      -13.3310315709  MEMB      98              0.0000000000
     11287        98  OSM       H3G            -2.7686303640        5.3375334115      -13.3033667195  MEMB      98              0.0000000000
     11288        98  OSM       C4F            -2.4713663377        3.4350881426      -12.1629028916  MEMB      98              0.0000000000
     11289        98  OSM       H4F            -1.3639542742        3.4964846832      -12.0981699446  MEMB      98              0.0000000000
     11290        98  OSM       H4G            -2.6492594043        2.3437329585      -12.2706930334  MEMB      98              0.0000000000
     11291        98  OSM       C5F            -2.9861974631        3.9738512182      -10.7763562972  MEMB      98              0.0000000000
     11292        98  OSM       H5F            -4.0609273336        4.1786958676      -10.9695283821  MEMB      98              0.0000000000
     11293        98  OSM       H5G            -2.5604200420        4.9506663051      -10.4619258440  MEMB      98              0.0000000000
     11294        98  OSM       C6F            -2.8202707654        3.0571409438       -9.5396608006  MEMB      98              0.0000000000
     11295        98  OSM       H6F            -3.0511129138        2.0218065735       -9.8699865765  MEMB      98              0.0000000000
     11296        98  OSM       H6G            -3.4799884040        3.3360925788       -8.6903791178  MEMB      98              0.0000000000
     11297        98  OSM       C7F            -1.3833437271        3.0368005220       -9.0231476092  MEMB      98              0.0000000000
     11298        98  OSM       H7F            -1.1729892716        4.0949667763       -8.7579004929  MEMB      98              0.0000000000
     11299        98  OSM       H7G            -0.7474533030        2.7784534921       -9.8967729837  MEMB      98              0.0000000000
     11300        98  OSM       C8F            -1.0645049396        1.9678557627       -7.9233013703  MEMB      98              0.0000000000
     11301        98  OSM       H8F            -0.8514426459        1.0244548074       -8.4700365935  MEMB      98              0.0000000000
     11302        98  OSM       H8G            -1.8920546978        1.7316817684       -7.2206607539  MEMB      98              0.0000000000
     11303        98  OSM       C9F             0.1288934313        2.2574280205       -7.0914908391  MEMB      98              0.0000000000
     11304        98  OSM       H9F             0.9157317194        2.6269766690       -7.7655229990  MEMB      98              0.0000000000
     11305        98  OSM       C10F            0.2587378002        2.4231967144       -5.7181397348  MEMB      98              0.0000000000
     11306        98  OSM       H10F            1.2347846846        2.7891316772       -5.3668218356  MEMB      98              0.0000000000
     11307        98  OSM       C11F           -0.8273984863        2.3605279402       -4.5726682057  MEMB      98              0.0000000000
     11308        98  OSM       H11F           -0.4519188386        1.9800186675       -3.5987331384  MEMB      98              0.0000000000
     11309        98  OSM       H11G           -1.6792912955        1.7916000857       -5.0026918468  MEMB      98              0.0000000000
     11310        98  OSM       C12F           -1.2965381746        3.7976697291       -4.1780658632  MEMB      98              0.0000000000
     11311        98  OSM       H12F           -2.1891029797        3.6835317648       -3.5264367398  MEMB      98              0.0000000000
     11312        98  OSM       H12G           -1.6315645590        4.3642083909       -5.0731147140  MEMB      98              0.0000000000
     11313        98  OSM       C13F           -0.3065519004        4.6728054028       -3.4038081079  MEMB      98              0.0000000000
     11314        98  OSM       H13F            0.5621531201        4.8784144907       -4.0651681574  MEMB      98              0.0000000000
     11315        98  OSM       H13G            0.0813871338        4.1482954961       -2.5045228305  MEMB      98              0.0000000000
     11316        98  OSM       C14F           -0.9432001867        5.9956708948       -2.9512322983  MEMB      98              0.0000000000
     11317        98  OSM       H14F           -1.1264914002        6.5576994953       -3.8918954277  MEMB      98              0.0000000000
     11318        98  OSM       H14G           -0.1928492595        6.6369875785       -2.4413227490  MEMB      98              0.0000000000
     11319        98  OSM       C15F           -2.1753537238        5.9090220644       -2.0685653644  MEMB      98              0.0000000000
     11320        98  OSM       H15F           -2.8684281488        5.1897551450       -2.5550060077  MEMB      98              0.0000000000
     11321        98  OSM       H15G           -2.6148419288        6.9288086153       -2.0338346251  MEMB      98              0.0000000000
     11322        98  OSM       C16F           -1.9739901917        5.2707519365       -0.6921044810  MEMB      98              0.0000000000
     11323        98  OSM       H16F           -1.4572481304        5.9637737344        0.0057634954  MEMB      98              0.0000000000
     11324        98  OSM       H16G           -1.3055141781        4.4010323122       -0.8683126051  MEMB      98              0.0000000000
     11325        98  OSM       C17F           -3.3478620721        4.7091351915       -0.2124074398  MEMB      98              0.0000000000
     11326        98  OSM       H17F           -3.3891045246        4.2401527181        0.7939109073  MEMB      98              0.0000000000
     11327        98  OSM       H17G           -3.4541633408        3.9570940820       -1.0232428126  MEMB      98              0.0000000000
     11328        98  OSM       C18F           -4.4869475940        5.6504284052       -0.2913801100  MEMB      98              0.0000000000
     11329        98  OSM       H18F           -5.3098613249        5.5206452719        0.4436635359  MEMB      98              0.0000000000
     11330        98  OSM       H18G           -4.8458249706        5.6779077707       -1.3424629821  MEMB      98              0.0000000000
     11331        98  OSM       H18H           -4.1264720951        6.6350382476        0.0759366408  MEMB      98              0.0000000000
     11332        99  SAPS      N              -4.9124379718       -6.0788291320      -19.5631741870  MEMB      99              0.0000000000
     11333        99  SAPS      HN1            -4.7576795617       -5.8495971691      -18.5606261372  MEMB      99              0.0000000000
     11334        99  SAPS      HN2            -5.9047772446       -5.9677597110      -19.8539085560  MEMB      99              0.0000000000
     11335        99  SAPS      HN3            -4.5335595442       -7.0159041262      -19.8080037481  MEMB      99              0.0000000000
     11336        99  SAPS      C12            -4.0109569032       -5.0883795742      -20.2778774221  MEMB      99              0.0000000000
     11337        99  SAPS      H12A           -4.2164016083       -5.2150825008      -21.3305591787  MEMB      99              0.0000000000
     11338        99  SAPS      C13            -4.3459621076       -3.6014721457      -20.1533875459  MEMB      99              0.0000000000
     11339        99  SAPS      O13A           -5.4265642839       -3.2805898303      -19.5418293036  MEMB      99              0.0000000000
     11340        99  SAPS      O13B           -3.7214957839       -2.6911424954      -20.7920251907  MEMB      99              0.0000000000
     11341        99  SAPS      C11            -2.4976266225       -5.2364524145      -19.9335453406  MEMB      99              0.0000000000
     11342        99  SAPS      H11A           -2.4007197191       -5.1843324658      -18.8280076960  MEMB      99              0.0000000000
     11343        99  SAPS      H11B           -1.9318523539       -4.4242844566      -20.4381279747  MEMB      99              0.0000000000
     11344        99  SAPS      P              -0.4789388296       -6.9786262119      -20.0184474326  MEMB      99              0.0000000000
     11345        99  SAPS      O13            -0.0676290932       -8.1002527367      -20.8929953407  MEMB      99              0.0000000000
     11346        99  SAPS      O14             0.3333358199       -5.7658739561      -19.9081592194  MEMB      99              0.0000000000
     11347        99  SAPS      O12            -1.9337765611       -6.5083528730      -20.3537688854  MEMB      99              0.0000000000
     11348        99  SAPS      O11            -0.6933753623       -7.5770400692      -18.5647901262  MEMB      99              0.0000000000
     11349        99  SAPS      C1             -1.9456553686       -8.0897148646      -18.1847894236  MEMB      99              0.0000000000
     11350        99  SAPS      HA             -2.6772401038       -7.2654632291      -18.3251964031  MEMB      99              0.0000000000
     11351        99  SAPS      HB             -2.2915379699       -9.0245939455      -18.6753881828  MEMB      99              0.0000000000
     11352        99  SAPS      C2             -2.1070194411       -8.4936763855      -16.6503864222  MEMB      99              0.0000000000
     11353        99  SAPS      HS             -3.1829331405       -8.4984958258      -16.3734252416  MEMB      99              0.0000000000
     11354        99  SAPS      O21            -1.4486362486       -7.5190553596      -15.8335626023  MEMB      99              0.0000000000
     11355        99  SAPS      C21            -2.1675580643       -6.3884394642      -15.6185941896  MEMB      99              0.0000000000
     11356        99  SAPS      O22            -3.1599892389       -6.1705643128      -16.2204191155  MEMB      99              0.0000000000
     11357        99  SAPS      C22            -1.2690909298       -5.3013073679      -14.9313644314  MEMB      99              0.0000000000
     11358        99  SAPS      H2R            -0.3337727605       -5.7189559220      -14.5011661870  MEMB      99              0.0000000000
     11359        99  SAPS      H2S            -0.8865657351       -4.5848222042      -15.6894174329  MEMB      99              0.0000000000
     11360        99  SAPS      C3             -1.4857783088       -9.8526449960      -16.3603286398  MEMB      99              0.0000000000
     11361        99  SAPS      HX             -0.4229349653       -9.8713249507      -16.6833396480  MEMB      99              0.0000000000
     11362        99  SAPS      HY             -2.0762379894      -10.6004131075      -16.9317488903  MEMB      99              0.0000000000
     11363        99  SAPS      O31            -1.4892381729      -10.2446715029      -14.9345287787  MEMB      99              0.0000000000
     11364        99  SAPS      C31            -0.2994877687      -10.0724867828      -14.1633861227  MEMB      99              0.0000000000
     11365        99  SAPS      O32             0.7375565258       -9.6256240551      -14.6000262636  MEMB      99              0.0000000000
     11366        99  SAPS      C32            -0.4949310257      -10.4655391378      -12.6956215140  MEMB      99              0.0000000000
     11367        99  SAPS      H2X            -0.0462589799      -11.4759137216      -12.5853621238  MEMB      99              0.0000000000
     11368        99  SAPS      H2Y            -1.5849845374      -10.5580484244      -12.5018527028  MEMB      99              0.0000000000
     11369        99  SAPS      C23            -2.1317613890       -4.3975641126      -14.0818375223  MEMB      99              0.0000000000
     11370        99  SAPS      H3R            -2.2650624919       -4.8719559475      -13.0860947146  MEMB      99              0.0000000000
     11371        99  SAPS      H3S            -3.1417483768       -4.2139656608      -14.5067364213  MEMB      99              0.0000000000
     11372        99  SAPS      C24            -1.4901987784       -3.0335347241      -13.7466444762  MEMB      99              0.0000000000
     11373        99  SAPS      H4R            -2.0713912272       -2.4177574719      -13.0273706277  MEMB      99              0.0000000000
     11374        99  SAPS      H4S            -1.3864972836       -2.3759347540      -14.6360989724  MEMB      99              0.0000000000
     11375        99  SAPS      C25            -0.1301165252       -3.2493399610      -13.2083174562  MEMB      99              0.0000000000
     11376        99  SAPS      H5R             0.5514739325       -3.8092181552      -13.8655622341  MEMB      99              0.0000000000
     11377        99  SAPS      C26             0.2919800195       -3.2338467712      -11.9141602648  MEMB      99              0.0000000000
     11378        99  SAPS      H6R             1.3205573664       -3.5228100587      -11.6523790355  MEMB      99              0.0000000000
     11379        99  SAPS      C27            -0.5384436718       -2.9194456653      -10.7050902209  MEMB      99              0.0000000000
     11380        99  SAPS      H7R            -1.3642948691       -3.6578376660      -10.6210176933  MEMB      99              0.0000000000
     11381        99  SAPS      H7S            -0.8971082887       -1.8903401072      -10.9210124532  MEMB      99              0.0000000000
     11382        99  SAPS      C28             0.2677722216       -2.9935633983       -9.3107451465  MEMB      99              0.0000000000
     11383        99  SAPS      H8R             0.5319811601       -2.0177129910       -8.8772607388  MEMB      99              0.0000000000
     11384        99  SAPS      C29             0.5584411052       -4.0863198553       -8.6089882410  MEMB      99              0.0000000000
     11385        99  SAPS      H9R             0.9276289102       -4.0717317546       -7.5728958836  MEMB      99              0.0000000000
     11386        99  SAPS      C210            0.0732674854       -5.3817861527       -9.1770574685  MEMB      99              0.0000000000
     11387        99  SAPS      H10R            0.3363942703       -5.3657360494      -10.2563297362  MEMB      99              0.0000000000
     11388        99  SAPS      H10S           -1.0319198301       -5.4481403245       -9.2691403132  MEMB      99              0.0000000000
     11389        99  SAPS      C211            0.6300263272       -6.6958203745       -8.5312024467  MEMB      99              0.0000000000
     11390        99  SAPS      H11R            1.5014490753       -7.1918235622       -8.9835327543  MEMB      99              0.0000000000
     11391        99  SAPS      C212            0.2137423516       -7.2501958305       -7.3868817260  MEMB      99              0.0000000000
     11392        99  SAPS      H12R            0.5892421847       -8.2404732343       -7.0896434404  MEMB      99              0.0000000000
     11393        99  SAPS      C213           -0.8541152096       -6.9059884511       -6.4335411887  MEMB      99              0.0000000000
     11394        99  SAPS      H13R           -1.2903886425       -5.9151757493       -6.6830938484  MEMB      99              0.0000000000
     11395        99  SAPS      H13S           -0.3473485769       -6.8226369828       -5.4483701178  MEMB      99              0.0000000000
     11396        99  SAPS      C214           -1.9575631413       -8.0450395170       -6.3309028424  MEMB      99              0.0000000000
     11397        99  SAPS      H14R           -2.2119583354       -8.5038033614       -7.2977635023  MEMB      99              0.0000000000
     11398        99  SAPS      C215           -2.4955685081       -8.4351501068       -5.2385471465  MEMB      99              0.0000000000
     11399        99  SAPS      H15R           -3.0800566343       -9.3642651198       -5.1669997367  MEMB      99              0.0000000000
     11400        99  SAPS      C216           -2.2365797020       -7.8664631876       -3.9101582559  MEMB      99              0.0000000000
     11401        99  SAPS      H16R           -1.1493108018       -7.6390649123       -3.8887671085  MEMB      99              0.0000000000
     11402        99  SAPS      H16S           -2.4076040484       -8.5565243785       -3.0564097928  MEMB      99              0.0000000000
     11403        99  SAPS      C217           -3.0091083995       -6.4732642403       -3.7104184543  MEMB      99              0.0000000000
     11404        99  SAPS      H17R           -2.8701090079       -5.7404460780       -4.5338114736  MEMB      99              0.0000000000
     11405        99  SAPS      H17S           -2.5971031174       -6.0203606123       -2.7833515717  MEMB      99              0.0000000000
     11406        99  SAPS      C218           -4.5668019692       -6.7232672417       -3.6940935154  MEMB      99              0.0000000000
     11407        99  SAPS      H18R           -4.8147914246       -7.5176166897       -2.9580018979  MEMB      99              0.0000000000
     11408        99  SAPS      H18S           -4.8917951168       -7.1134641771       -4.6822459240  MEMB      99              0.0000000000
     11409        99  SAPS      C219           -5.3088814778       -5.3458888167       -3.4387268072  MEMB      99              0.0000000000
     11410        99  SAPS      H19R           -6.3757986842       -5.5123279215       -3.7000812846  MEMB      99              0.0000000000
     11411        99  SAPS      H19S           -4.9988351613       -4.6150420892       -4.2159367760  MEMB      99              0.0000000000
     11412        99  SAPS      C220           -5.2094190377       -4.8008097978       -2.0203694610  MEMB      99              0.0000000000
     11413        99  SAPS      H20R           -5.9346079382       -3.9687971765       -1.8931788196  MEMB      99              0.0000000000
     11414        99  SAPS      H20S           -4.1941219211       -4.4504723162       -1.7361923378  MEMB      99              0.0000000000
     11415        99  SAPS      H20T           -5.4372589270       -5.6310593020       -1.3181611153  MEMB      99              0.0000000000
     11416        99  SAPS      C33             0.1724287881       -9.4682082731      -11.7388824175  MEMB      99              0.0000000000
     11417        99  SAPS      H3X             1.1906895584       -9.2374360430      -12.1186323847  MEMB      99              0.0000000000
     11418        99  SAPS      H3Y             0.2003474438       -9.9326654427      -10.7300110903  MEMB      99              0.0000000000
     11419        99  SAPS      C34            -0.6027034963       -8.1533780744      -11.7623311861  MEMB      99              0.0000000000
     11420        99  SAPS      H4X            -0.7375428300       -7.8172090097      -12.8126311496  MEMB      99              0.0000000000
     11421        99  SAPS      H4Y             0.0107089106       -7.4599008383      -11.1482175438  MEMB      99              0.0000000000
     11422        99  SAPS      C35            -2.0613558389       -8.2266178465      -11.1626191648  MEMB      99              0.0000000000
     11423        99  SAPS      H5X            -1.9691332608       -8.4724178832      -10.0830828453  MEMB      99              0.0000000000
     11424        99  SAPS      H5Y            -2.6940521005       -8.9403327064      -11.7323802282  MEMB      99              0.0000000000
     11425        99  SAPS      C36            -2.8362940416       -6.9681616970      -11.3800835061  MEMB      99              0.0000000000
     11426        99  SAPS      H6X            -2.8473324805       -6.6607140241      -12.4476391454  MEMB      99              0.0000000000
     11427        99  SAPS      H6Y            -2.3555011152       -6.0809271056      -10.9153541904  MEMB      99              0.0000000000
     11428        99  SAPS      C37            -4.3101669300       -6.9138686878      -10.9686215721  MEMB      99              0.0000000000
     11429        99  SAPS      H7X            -4.8334477919       -7.7556230199      -11.4705658133  MEMB      99              0.0000000000
     11430        99  SAPS      H7Y            -4.7081506062       -5.9541229851      -11.3620909738  MEMB      99              0.0000000000
     11431        99  SAPS      C38            -4.6069149715       -7.1833148828       -9.4410784262  MEMB      99              0.0000000000
     11432        99  SAPS      H8X            -4.3200243981       -8.2326704325       -9.2155402985  MEMB      99              0.0000000000
     11433        99  SAPS      H8Y            -5.7002085663       -7.0022303631       -9.3620935024  MEMB      99              0.0000000000
     11434        99  SAPS      C39            -3.9508332745       -6.1379752919       -8.4124635806  MEMB      99              0.0000000000
     11435        99  SAPS      H9X            -2.8773707764       -6.4144705688       -8.3379670765  MEMB      99              0.0000000000
     11436        99  SAPS      H9Y            -4.3023648652       -6.2788384608       -7.3679995400  MEMB      99              0.0000000000
     11437        99  SAPS      C310           -4.2188235939       -4.7170215110       -8.7968674284  MEMB      99              0.0000000000
     11438        99  SAPS      H10X           -5.2591847309       -4.3630166849       -8.6336185395  MEMB      99              0.0000000000
     11439        99  SAPS      H10Y           -3.9750316674       -4.4987393741       -9.8585828508  MEMB      99              0.0000000000
     11440        99  SAPS      C311           -3.4385724385       -3.7497367809       -7.8883674104  MEMB      99              0.0000000000
     11441        99  SAPS      H11X           -3.2938555379       -2.7576160769       -8.3669849352  MEMB      99              0.0000000000
     11442        99  SAPS      H11Y           -2.4417031590       -4.2090771060       -7.7163820824  MEMB      99              0.0000000000
     11443        99  SAPS      C312           -4.0878872654       -3.5579420975       -6.5505209312  MEMB      99              0.0000000000
     11444        99  SAPS      H12X           -3.9478479932       -4.5327659523       -6.0362944633  MEMB      99              0.0000000000
     11445        99  SAPS      H12Y           -5.1649188576       -3.3378820274       -6.7114465833  MEMB      99              0.0000000000
     11446        99  SAPS      C313           -3.3682013320       -2.5770167197       -5.6041313355  MEMB      99              0.0000000000
     11447        99  SAPS      H13X           -3.6914042915       -2.7943278386       -4.5636328596  MEMB      99              0.0000000000
     11448        99  SAPS      H13Y           -3.8321198363       -1.5768782008       -5.7413318108  MEMB      99              0.0000000000
     11449        99  SAPS      C314           -1.8884654279       -2.6394573566       -5.7148059466  MEMB      99              0.0000000000
     11450        99  SAPS      H14X           -1.5696286382       -2.4891142701       -6.7684006222  MEMB      99              0.0000000000
     11451        99  SAPS      H14Y           -1.5297926197       -3.6560671035       -5.4461437321  MEMB      99              0.0000000000
     11452        99  SAPS      C315           -1.2152008416       -1.6637875272       -4.8673502406  MEMB      99              0.0000000000
     11453        99  SAPS      H15X           -1.4666587014       -1.8814392127       -3.8072942979  MEMB      99              0.0000000000
     11454        99  SAPS      H15Y           -1.5499814920       -0.6085579793       -4.9608044216  MEMB      99              0.0000000000
     11455        99  SAPS      C316            0.3801536533       -1.7058450203       -5.1135717842  MEMB      99              0.0000000000
     11456        99  SAPS      H16X            0.5292496012       -1.3953058523       -6.1698174129  MEMB      99              0.0000000000
     11457        99  SAPS      H16Y            0.7548911020       -2.7479358568       -5.0244683056  MEMB      99              0.0000000000
     11458        99  SAPS      C317            1.2459676018       -0.8915855879       -4.0427170746  MEMB      99              0.0000000000
     11459        99  SAPS      H17X            1.3833001624        0.1185154643       -4.4844814271  MEMB      99              0.0000000000
     11460        99  SAPS      H17Y            2.2652036544       -1.3034543457       -3.8819581609  MEMB      99              0.0000000000
     11461        99  SAPS      C318            0.5965037147       -0.9955936246       -2.5793561763  MEMB      99              0.0000000000
     11462        99  SAPS      H18X            0.4635394244       -2.0649911048       -2.3091129283  MEMB      99              0.0000000000
     11463        99  SAPS      H18Y           -0.4337637543       -0.5939609135       -2.6868779473  MEMB      99              0.0000000000
     11464        99  SAPS      H18Z            1.0609799800       -0.4099495524       -1.7574052786  MEMB      99              0.0000000000
     11465       100  SOPE      N               0.2191452565       10.9238394184      -19.3006805738  MEMB      100             0.0000000000
     11466       100  SOPE      HN1             0.5820952159       11.8980450717      -19.2725613178  MEMB      100             0.0000000000
     11467       100  SOPE      HN2            -0.1750716757       10.6211946219      -18.3871167132  MEMB      100             0.0000000000
     11468       100  SOPE      HN3             1.0345770689       10.3406705555      -19.5774209995  MEMB      100             0.0000000000
     11469       100  SOPE      C12            -0.8001488404       10.8319291610      -20.3934416285  MEMB      100             0.0000000000
     11470       100  SOPE      H12A           -0.3214002615       11.3027305833      -21.2785781736  MEMB      100             0.0000000000
     11471       100  SOPE      H12B           -1.7677411701       11.2997033581      -20.1118864941  MEMB      100             0.0000000000
     11472       100  SOPE      C11            -0.9982995307        9.3484755521      -20.6608101928  MEMB      100             0.0000000000
     11473       100  SOPE      H11A           -1.7057010205        9.4007951345      -21.5158932018  MEMB      100             0.0000000000
     11474       100  SOPE      H11B           -1.7278913938        8.7070816911      -20.1217085740  MEMB      100             0.0000000000
     11475       100  SOPE      P               0.2742046507        7.2625366541      -21.6442286441  MEMB      100             0.0000000000
     11476       100  SOPE      O13             1.5308904493        7.2024928733      -22.3943599078  MEMB      100             0.0000000000
     11477       100  SOPE      O14            -0.9813782574        6.8473730439      -22.2982074313  MEMB      100             0.0000000000
     11478       100  SOPE      O12             0.1991540785        8.6628661358      -20.9500652650  MEMB      100             0.0000000000
     11479       100  SOPE      O11             0.4807922216        6.3270733201      -20.3582063174  MEMB      100             0.0000000000
     11480       100  SOPE      C1             -0.5184610073        5.4164671512      -19.8412505813  MEMB      100             0.0000000000
     11481       100  SOPE      HA             -0.1236080535        4.3926997831      -20.0153557542  MEMB      100             0.0000000000
     11482       100  SOPE      HB             -1.4995801778        5.5159261157      -20.3529479394  MEMB      100             0.0000000000
     11483       100  SOPE      C2             -0.7692175691        5.7465997627      -18.3212579035  MEMB      100             0.0000000000
     11484       100  SOPE      HS             -1.5175930798        4.9874947023      -18.0081854748  MEMB      100             0.0000000000
     11485       100  SOPE      O21            -1.3336410925        7.0356130055      -18.2176736096  MEMB      100             0.0000000000
     11486       100  SOPE      C21            -2.1043867675        7.3357769767      -17.1296836702  MEMB      100             0.0000000000
     11487       100  SOPE      O22            -2.4771794381        6.4730385517      -16.3464032958  MEMB      100             0.0000000000
     11488       100  SOPE      C22            -2.4248103211        8.8021335529      -17.0124978252  MEMB      100             0.0000000000
     11489       100  SOPE      H2R            -3.3593762931        8.9968999578      -17.5808052873  MEMB      100             0.0000000000
     11490       100  SOPE      H2S            -1.5865422576        9.2944204259      -17.5503466641  MEMB      100             0.0000000000
     11491       100  SOPE      C3              0.5816590248        5.5952239714      -17.5001224437  MEMB      100             0.0000000000
     11492       100  SOPE      HX              1.3671631644        6.1293492695      -18.0763293237  MEMB      100             0.0000000000
     11493       100  SOPE      HY              0.8175729216        4.5105419779      -17.5462810201  MEMB      100             0.0000000000
     11494       100  SOPE      O31             0.4867206040        6.0149353044      -16.1233743325  MEMB      100             0.0000000000
     11495       100  SOPE      C31             1.6090977947        6.2850970120      -15.4104544213  MEMB      100             0.0000000000
     11496       100  SOPE      O32             2.7460638117        6.3135988705      -15.8772881317  MEMB      100             0.0000000000
     11497       100  SOPE      C32             1.2788902605        6.6363607099      -13.9453092116  MEMB      100             0.0000000000
     11498       100  SOPE      H2X             0.4022490431        6.0416790858      -13.6103840307  MEMB      100             0.0000000000
     11499       100  SOPE      H2Y             1.0412454815        7.7141093967      -13.8176236713  MEMB      100             0.0000000000
     11500       100  SOPE      C23            -2.4116125743        9.2259204658      -15.5470732636  MEMB      100             0.0000000000
     11501       100  SOPE      H3R            -2.6552899942        8.3407578758      -14.9214302799  MEMB      100             0.0000000000
     11502       100  SOPE      H3S            -3.1642800276       10.0390652101      -15.4657812141  MEMB      100             0.0000000000
     11503       100  SOPE      C24            -0.9989928018        9.8079467323      -15.2217874614  MEMB      100             0.0000000000
     11504       100  SOPE      H4R            -0.2375694111        9.0096322879      -15.3531241145  MEMB      100             0.0000000000
     11505       100  SOPE      H4S            -0.7742888187       10.7130996469      -15.8255484937  MEMB      100             0.0000000000
     11506       100  SOPE      C25            -0.7619869821       10.3147353991      -13.7563963875  MEMB      100             0.0000000000
     11507       100  SOPE      H5R             0.3224241782       10.5332312190      -13.6532789538  MEMB      100             0.0000000000
     11508       100  SOPE      H5S            -1.2748540933       11.2853318515      -13.5854264044  MEMB      100             0.0000000000
     11509       100  SOPE      C26            -1.1391699355        9.3136855668      -12.5958501030  MEMB      100             0.0000000000
     11510       100  SOPE      H6R            -2.2290246733        9.0980816012      -12.6031056604  MEMB      100             0.0000000000
     11511       100  SOPE      H6S            -0.7383850499        8.3115839685      -12.8594504056  MEMB      100             0.0000000000
     11512       100  SOPE      C27            -0.7277466623        9.7836596363      -11.2428624948  MEMB      100             0.0000000000
     11513       100  SOPE      H7R             0.3587686138        9.5536142570      -11.2131173355  MEMB      100             0.0000000000
     11514       100  SOPE      H7S            -0.9871071634       10.8602176701      -11.1529986659  MEMB      100             0.0000000000
     11515       100  SOPE      C28            -1.2127580450        9.0192497839      -10.0178856447  MEMB      100             0.0000000000
     11516       100  SOPE      H8R            -0.7250212950        9.5029868768       -9.1447115462  MEMB      100             0.0000000000
     11517       100  SOPE      H8S            -2.2855755918        9.2886830214       -9.9140143047  MEMB      100             0.0000000000
     11518       100  SOPE      C29            -1.0889391712        7.4868540031      -10.1425473477  MEMB      100             0.0000000000
     11519       100  SOPE      H91            -1.7362632292        7.0406577230      -10.9118849195  MEMB      100             0.0000000000
     11520       100  SOPE      C210           -0.2227285438        6.7161361123       -9.3551611560  MEMB      100             0.0000000000
     11521       100  SOPE      H101           -0.4402711942        5.6389197791       -9.3074105100  MEMB      100             0.0000000000
     11522       100  SOPE      C211            0.6822294737        7.2945720043       -8.2675182137  MEMB      100             0.0000000000
     11523       100  SOPE      H11R            0.5819378842        8.3941845725       -8.1445772201  MEMB      100             0.0000000000
     11524       100  SOPE      H11S            1.6921508732        7.1133374018       -8.6935864736  MEMB      100             0.0000000000
     11525       100  SOPE      C212            0.6499723419        6.6070582398       -6.9097710570  MEMB      100             0.0000000000
     11526       100  SOPE      H12R            1.5881714063        6.8674866339       -6.3747194848  MEMB      100             0.0000000000
     11527       100  SOPE      H12S            0.6543832174        5.5349583667       -7.2011533579  MEMB      100             0.0000000000
     11528       100  SOPE      C213           -0.6053415495        6.7591870091       -5.9515475637  MEMB      100             0.0000000000
     11529       100  SOPE      H13R           -0.3504894513        6.2556536453       -4.9945598338  MEMB      100             0.0000000000
     11530       100  SOPE      H13S           -1.4882581102        6.2703463966       -6.4161052589  MEMB      100             0.0000000000
     11531       100  SOPE      C214           -0.9502520553        8.1839206026       -5.6116659711  MEMB      100             0.0000000000
     11532       100  SOPE      H14R           -1.0915179683        8.9173640865       -6.4341168366  MEMB      100             0.0000000000
     11533       100  SOPE      H14S           -0.1184874907        8.5736896613       -4.9867108676  MEMB      100             0.0000000000
     11534       100  SOPE      C215           -2.2312505736        8.3808646369       -4.7788698875  MEMB      100             0.0000000000
     11535       100  SOPE      H15R           -2.2462920209        7.6120419849       -3.9769929498  MEMB      100             0.0000000000
     11536       100  SOPE      H15S           -3.1238982660        8.2366998261       -5.4244053031  MEMB      100             0.0000000000
     11537       100  SOPE      C216           -2.3660225911        9.8130180301       -4.1505206487  MEMB      100             0.0000000000
     11538       100  SOPE      H16R           -2.4461862313       10.6231519774       -4.9065480587  MEMB      100             0.0000000000
     11539       100  SOPE      H16S           -1.5217653957        9.8700363620       -3.4305906562  MEMB      100             0.0000000000
     11540       100  SOPE      C217           -3.6577477109        9.9101227282       -3.3705307285  MEMB      100             0.0000000000
     11541       100  SOPE      H17R           -4.4978487252        9.4052256656       -3.8936285213  MEMB      100             0.0000000000
     11542       100  SOPE      H17S           -3.9325189980       10.9661744619       -3.1617835216  MEMB      100             0.0000000000
     11543       100  SOPE      C218           -3.7828706458        9.1967117339       -1.9648091167  MEMB      100             0.0000000000
     11544       100  SOPE      H18R           -3.1824317323        8.2620207335       -1.9769299959  MEMB      100             0.0000000000
     11545       100  SOPE      H18S           -4.8547191501        8.9826219167       -1.7657425361  MEMB      100             0.0000000000
     11546       100  SOPE      H18T           -3.4093278399        9.9417371824       -1.2301501557  MEMB      100             0.0000000000
     11547       100  SOPE      C33             2.5441448122        6.2552858920      -13.0681218431  MEMB      100             0.0000000000
     11548       100  SOPE      H3X             3.0187741490        5.3130452122      -13.4163043727  MEMB      100             0.0000000000
     11549       100  SOPE      H3Y             2.1354204471        6.0303408263      -12.0598240412  MEMB      100             0.0000000000
     11550       100  SOPE      C34             3.5008894759        7.4174433492      -12.9206586688  MEMB      100             0.0000000000
     11551       100  SOPE      H4X             3.7754118554        7.7694351328      -13.9380379433  MEMB      100             0.0000000000
     11552       100  SOPE      H4Y             4.4716888119        7.1165198792      -12.4719776227  MEMB      100             0.0000000000
     11553       100  SOPE      C35             2.8723184084        8.5702118534      -12.1682713176  MEMB      100             0.0000000000
     11554       100  SOPE      H5X             2.2815553518        8.1875987673      -11.3086624856  MEMB      100             0.0000000000
     11555       100  SOPE      H5Y             2.1179595136        9.0801820708      -12.8048193432  MEMB      100             0.0000000000
     11556       100  SOPE      C36             3.9438033546        9.6043544035      -11.7576667311  MEMB      100             0.0000000000
     11557       100  SOPE      H6X             4.6360275046        9.8643123218      -12.5868647282  MEMB      100             0.0000000000
     11558       100  SOPE      H6Y             4.6668780414        9.1005628430      -11.0811480595  MEMB      100             0.0000000000
     11559       100  SOPE      C37             3.3939367835       10.8930283396      -11.2071545873  MEMB      100             0.0000000000
     11560       100  SOPE      H7X             2.8119144217       11.4545307121      -11.9689201005  MEMB      100             0.0000000000
     11561       100  SOPE      H7Y             4.2705933023       11.5221443035      -10.9425664566  MEMB      100             0.0000000000
     11562       100  SOPE      C38             2.5785560528       10.8549407546       -9.8937601272  MEMB      100             0.0000000000
     11563       100  SOPE      H8X             3.1032019696       10.2675684938       -9.1101394257  MEMB      100             0.0000000000
     11564       100  SOPE      H8Y             1.7016922020       10.1981446830      -10.0782861750  MEMB      100             0.0000000000
     11565       100  SOPE      C39             2.0248256194       12.1945287117       -9.2959564995  MEMB      100             0.0000000000
     11566       100  SOPE      H9X             1.6039777081       12.8054906416      -10.1229586959  MEMB      100             0.0000000000
     11567       100  SOPE      H9Y             2.8404469233       12.7150994420       -8.7499805626  MEMB      100             0.0000000000
     11568       100  SOPE      C310            0.9484790848       11.8375322043       -8.1761688718  MEMB      100             0.0000000000
     11569       100  SOPE      H10X            0.2462328244       11.0797765415       -8.5847972157  MEMB      100             0.0000000000
     11570       100  SOPE      H10Y            0.3629219715       12.7326862148       -7.8759299932  MEMB      100             0.0000000000
     11571       100  SOPE      C311            1.6955070270       11.3501829882       -6.8517853436  MEMB      100             0.0000000000
     11572       100  SOPE      H11X            2.5693390979       12.0279737618       -6.7453021798  MEMB      100             0.0000000000
     11573       100  SOPE      H11Y            2.0251940541       10.2935171401       -6.9470989491  MEMB      100             0.0000000000
     11574       100  SOPE      C312            0.7534023749       11.4770719810       -5.7134799344  MEMB      100             0.0000000000
     11575       100  SOPE      H12X            1.2983242567       10.9431787039       -4.9058053477  MEMB      100             0.0000000000
     11576       100  SOPE      H12Y           -0.2269632388       11.0084427585       -5.9449774595  MEMB      100             0.0000000000
     11577       100  SOPE      C313            0.4952302150       12.8871828497       -5.2057258735  MEMB      100             0.0000000000
     11578       100  SOPE      H13X            0.0825318801       13.3935681378       -6.1043769680  MEMB      100             0.0000000000
     11579       100  SOPE      H13Y            1.5380185843       13.2392295078       -5.0541446290  MEMB      100             0.0000000000
     11580       100  SOPE      C314           -0.4351263306       13.0072993926       -3.9793331900  MEMB      100             0.0000000000
     11581       100  SOPE      H14X           -1.3562435495       12.4642476434       -4.2809264619  MEMB      100             0.0000000000
     11582       100  SOPE      H14Y           -0.5673979073       14.1071241125       -3.8944143649  MEMB      100             0.0000000000
     11583       100  SOPE      C315            0.1444758102       12.5545540152       -2.6955761907  MEMB      100             0.0000000000
     11584       100  SOPE      H15X            0.8937400834       13.2690153534       -2.2925010242  MEMB      100             0.0000000000
     11585       100  SOPE      H15Y            0.7536509008       11.6291095039       -2.7779133958  MEMB      100             0.0000000000
     11586       100  SOPE      C316           -0.8102869300       12.3038272477       -1.4746639138  MEMB      100             0.0000000000
     11587       100  SOPE      H16X           -1.4759992701       11.4285555197       -1.6329267176  MEMB      100             0.0000000000
     11588       100  SOPE      H16Y           -1.4291998109       13.2179511261       -1.3495812309  MEMB      100             0.0000000000
     11589       100  SOPE      C317           -0.0362577133       12.0164945476       -0.1794143543  MEMB      100             0.0000000000
     11590       100  SOPE      H17X            0.7090080575       11.2231295105       -0.4018376296  MEMB      100             0.0000000000
     11591       100  SOPE      H17Y           -0.7431764650       11.6842903143        0.6106643931  MEMB      100             0.0000000000
     11592       100  SOPE      C318            0.6618004015       13.2172735058        0.5248831286  MEMB      100             0.0000000000
     11593       100  SOPE      H18X            1.4313337392       13.6507241330       -0.1491049452  MEMB      100             0.0000000000
     11594       100  SOPE      H18Y            1.1876166156       12.8632095961        1.4372847190  MEMB      100             0.0000000000
     11595       100  SOPE      H18Z           -0.1289337459       13.9897047494        0.6362829379  MEMB      100             0.0000000000
     11596       101  CHL1      C3              5.1955311990       -6.9556733299      -17.3453650000  MEMB      101             0.0000000000
     11597       101  CHL1      H3              6.2864236853       -6.8157584489      -17.1882450000  MEMB      101             0.0000000000
     11598       101  CHL1      O3              4.9205009810       -7.3718413301      -18.6546350000  MEMB      101             0.0000000000
     11599       101  CHL1      H3'             5.1159997000       -6.5818445145      -19.1638350000  MEMB      101             0.0000000000
     11600       101  CHL1      C4              4.7336289136       -8.0863877005      -16.4619050000  MEMB      101             0.0000000000
     11601       101  CHL1      H4A             3.6599064002       -8.3109667045      -16.6380450000  MEMB      101             0.0000000000
     11602       101  CHL1      H4B             5.3275148628       -9.0041830862      -16.6601150000  MEMB      101             0.0000000000
     11603       101  CHL1      C5              4.8177596565       -7.8041134087      -14.9508150000  MEMB      101             0.0000000000
     11604       101  CHL1      C6              5.5803923305       -8.6433782203      -14.1552450000  MEMB      101             0.0000000000
     11605       101  CHL1      H6              5.9956292257       -9.5805876098      -14.5542650000  MEMB      101             0.0000000000
     11606       101  CHL1      C7              5.7049354114       -8.4500932983      -12.6617850000  MEMB      101             0.0000000000
     11607       101  CHL1      H7A             5.3849279837       -9.3810724488      -12.1468350000  MEMB      101             0.0000000000
     11608       101  CHL1      H7B             6.7553457947       -8.1384184632      -12.4778950000  MEMB      101             0.0000000000
     11609       101  CHL1      C8              4.7445258967       -7.3334172048      -12.1349750000  MEMB      101             0.0000000000
     11610       101  CHL1      H8              3.7546393588       -7.8357429406      -12.0890450000  MEMB      101             0.0000000000
     11611       101  CHL1      C14             5.2283604283       -6.9692416571      -10.7381150000  MEMB      101             0.0000000000
     11612       101  CHL1      H14             6.1983534998       -6.4433491524      -10.8679950000  MEMB      101             0.0000000000
     11613       101  CHL1      C15             5.5174694527       -8.0644375813       -9.6686150000  MEMB      101             0.0000000000
     11614       101  CHL1      H15A            4.7502141727       -8.8679462281       -9.6686450000  MEMB      101             0.0000000000
     11615       101  CHL1      H15B            6.4931612609       -8.5830419304       -9.7843150000  MEMB      101             0.0000000000
     11616       101  CHL1      C16             5.5437157882       -7.3096620428       -8.3338750000  MEMB      101             0.0000000000
     11617       101  CHL1      H16A            4.7837069360       -7.8594539204       -7.7385250000  MEMB      101             0.0000000000
     11618       101  CHL1      H16B            6.4842075638       -7.3958936479       -7.7487750000  MEMB      101             0.0000000000
     11619       101  CHL1      C17             4.9388664273       -5.9176615727       -8.6168450000  MEMB      101             0.0000000000
     11620       101  CHL1      H17             5.8233413245       -5.2588991999       -8.7512550000  MEMB      101             0.0000000000
     11621       101  CHL1      C13             4.3145906226       -5.9935499951      -10.0006950000  MEMB      101             0.0000000000
     11622       101  CHL1      C18             2.8643305944       -6.6077969769       -9.9105050000  MEMB      101             0.0000000000
     11623       101  CHL1      H18A            2.2825247398       -6.5848275952      -10.8567050000  MEMB      101             0.0000000000
     11624       101  CHL1      H18B            2.8786702520       -7.6076263806       -9.4262950000  MEMB      101             0.0000000000
     11625       101  CHL1      H18C            2.2422536717       -5.9534770133       -9.2630550000  MEMB      101             0.0000000000
     11626       101  CHL1      C12             4.3057791949       -4.6740173395      -10.8497750000  MEMB      101             0.0000000000
     11627       101  CHL1      H12A            3.6421780968       -3.9632827558      -10.3123650000  MEMB      101             0.0000000000
     11628       101  CHL1      H12B            5.2913847673       -4.1634194193      -10.8029450000  MEMB      101             0.0000000000
     11629       101  CHL1      C11             3.8319685748       -4.9363110655      -12.3137050000  MEMB      101             0.0000000000
     11630       101  CHL1      H11A            2.7633453883       -5.2004194176      -12.1632950000  MEMB      101             0.0000000000
     11631       101  CHL1      H11B            3.9097769860       -4.0600667575      -12.9922750000  MEMB      101             0.0000000000
     11632       101  CHL1      C9              4.6578823824       -6.0921332603      -13.0477950000  MEMB      101             0.0000000000
     11633       101  CHL1      H9              5.7082208403       -5.7451183174      -13.1511150000  MEMB      101             0.0000000000
     11634       101  CHL1      C10             4.2232831986       -6.4167748465      -14.4507650000  MEMB      101             0.0000000000
     11635       101  CHL1      C19             2.7020047772       -6.6639205332      -14.3425050000  MEMB      101             0.0000000000
     11636       101  CHL1      H19A            2.3798539034       -7.2963704132      -13.4877950000  MEMB      101             0.0000000000
     11637       101  CHL1      H19B            2.2672784765       -5.6417189466      -14.3634750000  MEMB      101             0.0000000000
     11638       101  CHL1      H19C            2.2960487921       -7.1983593347      -15.2278950000  MEMB      101             0.0000000000
     11639       101  CHL1      C1              4.6372609740       -5.2623337284      -15.4387150000  MEMB      101             0.0000000000
     11640       101  CHL1      H1A             4.1428731676       -4.3081492112      -15.1568950000  MEMB      101             0.0000000000
     11641       101  CHL1      H1B             5.7238897538       -5.1116014121      -15.2630950000  MEMB      101             0.0000000000
     11642       101  CHL1      C2              4.4572949241       -5.6765630611      -16.9871750000  MEMB      101             0.0000000000
     11643       101  CHL1      H2A             4.8792659913       -4.8028908277      -17.5284350000  MEMB      101             0.0000000000
     11644       101  CHL1      H2B             3.3819256060       -5.7741428673      -17.2486650000  MEMB      101             0.0000000000
     11645       101  CHL1      C20             4.1240433554       -5.3138841353       -7.4103450000  MEMB      101             0.0000000000
     11646       101  CHL1      H20             3.2592613094       -6.0040246631       -7.3094550000  MEMB      101             0.0000000000
     11647       101  CHL1      C21             3.3751031547       -3.9615466109       -7.6225050000  MEMB      101             0.0000000000
     11648       101  CHL1      H21A            3.9883410434       -3.0816834193       -7.9125050000  MEMB      101             0.0000000000
     11649       101  CHL1      H21B            2.8070053663       -3.7145384068       -6.7002350000  MEMB      101             0.0000000000
     11650       101  CHL1      H21C            2.6623258495       -4.2140407504       -8.4364450000  MEMB      101             0.0000000000
     11651       101  CHL1      C22             5.0611359047       -5.1523472521       -6.2320850000  MEMB      101             0.0000000000
     11652       101  CHL1      H22A            5.8795760180       -5.9022127733       -6.1854250000  MEMB      101             0.0000000000
     11653       101  CHL1      H22B            5.5736939893       -4.1673535900       -6.2695050000  MEMB      101             0.0000000000
     11654       101  CHL1      C23             4.4484769171       -5.2265835363       -4.8347650000  MEMB      101             0.0000000000
     11655       101  CHL1      H23A            5.1599600034       -4.8094042032       -4.0904050000  MEMB      101             0.0000000000
     11656       101  CHL1      H23B            3.4972830316       -4.6572714977       -4.9085350000  MEMB      101             0.0000000000
     11657       101  CHL1      C24             4.0784313260       -6.6698010665       -4.5219150000  MEMB      101             0.0000000000
     11658       101  CHL1      H24A            3.2872172505       -7.0597638409       -5.1973750000  MEMB      101             0.0000000000
     11659       101  CHL1      H24B            4.9784782503       -7.3154127182       -4.6080650000  MEMB      101             0.0000000000
     11660       101  CHL1      C25             3.6798641442       -6.9583751959       -3.0954850000  MEMB      101             0.0000000000
     11661       101  CHL1      H25             2.9117544605       -6.1840428328       -2.8839450000  MEMB      101             0.0000000000
     11662       101  CHL1      C26             3.1811378903       -8.4096217621       -2.8910150000  MEMB      101             0.0000000000
     11663       101  CHL1      H26A            3.9356512464       -9.1408555222       -3.2520350000  MEMB      101             0.0000000000
     11664       101  CHL1      H26B            3.0261547184       -8.7130334450       -1.8335450000  MEMB      101             0.0000000000
     11665       101  CHL1      H26C            2.1939854901       -8.5240746116       -3.3877450000  MEMB      101             0.0000000000
     11666       101  CHL1      C27             4.8562140043       -6.8021407850       -2.0842650000  MEMB      101             0.0000000000
     11667       101  CHL1      H27A            4.4718078851       -6.8557779595       -1.0432750000  MEMB      101             0.0000000000
     11668       101  CHL1      H27B            5.5609456883       -7.6560036433       -2.1770150000  MEMB      101             0.0000000000
     11669       101  CHL1      H27C            5.3654136994       -5.8276601682       -2.2436750000  MEMB      101             0.0000000000
     11670       102  CHL1      C3              7.7040378702        7.1832715810      -17.3966500000  MEMB      102             0.0000000000
     11671       102  CHL1      H3              6.8004373423        7.8100243697      -17.2385400000  MEMB      102             0.0000000000
     11672       102  CHL1      O3              7.6303689498        6.4639147190      -18.6033500000  MEMB      102             0.0000000000
     11673       102  CHL1      H3'             6.7636605137        6.0656249005      -18.4948100000  MEMB      102             0.0000000000
     11674       102  CHL1      C4              8.9734142716        8.0170592152      -17.2597100000  MEMB      102             0.0000000000
     11675       102  CHL1      H4A             9.7834310482        7.3571970276      -17.6375800000  MEMB      102             0.0000000000
     11676       102  CHL1      H4B             8.8105488526        8.8107619451      -18.0198700000  MEMB      102             0.0000000000
     11677       102  CHL1      C5              9.3538180230        8.6236791183      -15.9247100000  MEMB      102             0.0000000000
     11678       102  CHL1      C6              9.6521866054        9.9287645280      -15.8467000000  MEMB      102             0.0000000000
     11679       102  CHL1      H6              9.6625740518       10.5269649328      -16.7697600000  MEMB      102             0.0000000000
     11680       102  CHL1      C7              9.8942415570       10.5331386844      -14.5367400000  MEMB      102             0.0000000000
     11681       102  CHL1      H7A            10.8286016768       11.1332457299      -14.5710200000  MEMB      102             0.0000000000
     11682       102  CHL1      H7B             9.1378552511       11.3134626112      -14.3059000000  MEMB      102             0.0000000000
     11683       102  CHL1      C8              9.9997304423        9.5580996893      -13.3008400000  MEMB      102             0.0000000000
     11684       102  CHL1      H8             11.0599466074        9.2267727220      -13.2790500000  MEMB      102             0.0000000000
     11685       102  CHL1      C14             9.6615952567       10.3266199941      -12.0574100000  MEMB      102             0.0000000000
     11686       102  CHL1      H14             8.5608719897       10.4750288398      -12.0842000000  MEMB      102             0.0000000000
     11687       102  CHL1      C15            10.2682592437       11.7191666394      -11.8991900000  MEMB      102             0.0000000000
     11688       102  CHL1      H15A           11.3100914746       11.7875982656      -12.2789300000  MEMB      102             0.0000000000
     11689       102  CHL1      H15B            9.7743615089       12.5830277711      -12.3932900000  MEMB      102             0.0000000000
     11690       102  CHL1      C16            10.2603208309       11.9824766947      -10.3903800000  MEMB      102             0.0000000000
     11691       102  CHL1      H16A           11.3100316035       11.9246284116      -10.0311000000  MEMB      102             0.0000000000
     11692       102  CHL1      H16B            9.8208625628       12.9810628725      -10.1805300000  MEMB      102             0.0000000000
     11693       102  CHL1      C17             9.4416748166       10.7909645093       -9.8101800000  MEMB      102             0.0000000000
     11694       102  CHL1      H17             8.3597289568       11.0431505335       -9.7994600000  MEMB      102             0.0000000000
     11695       102  CHL1      C13             9.7520194402        9.5832201337      -10.7196100000  MEMB      102             0.0000000000
     11696       102  CHL1      C18            11.1173545087        9.0774453067      -10.4907700000  MEMB      102             0.0000000000
     11697       102  CHL1      H18A           11.9097917946        9.8428983558      -10.3478300000  MEMB      102             0.0000000000
     11698       102  CHL1      H18B           10.9686333742        8.5070459583       -9.5490400000  MEMB      102             0.0000000000
     11699       102  CHL1      H18C           11.4526159779        8.3012363379      -11.2114700000  MEMB      102             0.0000000000
     11700       102  CHL1      C12             8.7329017369        8.4127015788      -10.8408200000  MEMB      102             0.0000000000
     11701       102  CHL1      H12A            8.7532849600        7.7113591360       -9.9794100000  MEMB      102             0.0000000000
     11702       102  CHL1      H12B            7.7347513130        8.8969758022      -10.8998400000  MEMB      102             0.0000000000
     11703       102  CHL1      C11             9.0379140254        7.6052932581      -12.1446300000  MEMB      102             0.0000000000
     11704       102  CHL1      H11A           10.0465463205        7.1590834337      -12.0109400000  MEMB      102             0.0000000000
     11705       102  CHL1      H11B            8.3249732054        6.7534539924      -12.1650400000  MEMB      102             0.0000000000
     11706       102  CHL1      C9              9.0481465586        8.4206463142      -13.4867400000  MEMB      102             0.0000000000
     11707       102  CHL1      H9              8.0423726871        8.8898905826      -13.5372000000  MEMB      102             0.0000000000
     11708       102  CHL1      C10             9.1355441995        7.5970553213      -14.7908700000  MEMB      102             0.0000000000
     11709       102  CHL1      C19            10.3421517065        6.6892373038      -14.6559000000  MEMB      102             0.0000000000
     11710       102  CHL1      H19A           11.3531935060        7.0721046319      -14.3999200000  MEMB      102             0.0000000000
     11711       102  CHL1      H19B           10.3135773624        5.9273210035      -13.8478200000  MEMB      102             0.0000000000
     11712       102  CHL1      H19C           10.4431481841        6.2384006665      -15.6662800000  MEMB      102             0.0000000000
     11713       102  CHL1      C1              7.7638207256        6.7698633786      -14.9349200000  MEMB      102             0.0000000000
     11714       102  CHL1      H1A             7.7705016684        6.1320267759      -14.0252800000  MEMB      102             0.0000000000
     11715       102  CHL1      H1B             6.8122141200        7.3091571175      -14.7402000000  MEMB      102             0.0000000000
     11716       102  CHL1      C2              7.6183181476        6.1039377962      -16.2893800000  MEMB      102             0.0000000000
     11717       102  CHL1      H2A             6.5732309891        5.7325785537      -16.3541700000  MEMB      102             0.0000000000
     11718       102  CHL1      H2B             8.3596420481        5.3086368956      -16.5180200000  MEMB      102             0.0000000000
     11719       102  CHL1      C20             9.7445251875       10.5339417341       -8.2757700000  MEMB      102             0.0000000000
     11720       102  CHL1      H20            10.8480064247       10.4734173472       -8.1617900000  MEMB      102             0.0000000000
     11721       102  CHL1      C21             9.1395327461        9.2796716281       -7.6158900000  MEMB      102             0.0000000000
     11722       102  CHL1      H21A            8.0289850783        9.2973057310       -7.6419800000  MEMB      102             0.0000000000
     11723       102  CHL1      H21B            9.4081617092        9.2911156392       -6.5379200000  MEMB      102             0.0000000000
     11724       102  CHL1      H21C            9.5554825898        8.3739471285       -8.1067700000  MEMB      102             0.0000000000
     11725       102  CHL1      C22             9.2088035345       11.8479670388       -7.5987400000  MEMB      102             0.0000000000
     11726       102  CHL1      H22A            9.8777096476       12.7019594167       -7.8387300000  MEMB      102             0.0000000000
     11727       102  CHL1      H22B            8.1618352399       12.0955218291       -7.8760400000  MEMB      102             0.0000000000
     11728       102  CHL1      C23             9.3828220651       11.8070129671       -5.9961400000  MEMB      102             0.0000000000
     11729       102  CHL1      H23A            8.7067703576       11.0264357768       -5.5863000000  MEMB      102             0.0000000000
     11730       102  CHL1      H23B           10.4746084638       11.7069026326       -5.8164400000  MEMB      102             0.0000000000
     11731       102  CHL1      C24             9.1045866774       13.1592132926       -5.4050300000  MEMB      102             0.0000000000
     11732       102  CHL1      H24A            9.7502657362       13.8606803122       -5.9754500000  MEMB      102             0.0000000000
     11733       102  CHL1      H24B            8.0994993482       13.6017567678       -5.5731600000  MEMB      102             0.0000000000
     11734       102  CHL1      C25             9.4102054411       13.2286621410       -3.9412600000  MEMB      102             0.0000000000
     11735       102  CHL1      H25            10.2369168986       12.5246810172       -3.7061400000  MEMB      102             0.0000000000
     11736       102  CHL1      C26             9.9891601895       14.6124517893       -3.5406000000  MEMB      102             0.0000000000
     11737       102  CHL1      H26A           10.4115090055       14.6095585820       -2.5130200000  MEMB      102             0.0000000000
     11738       102  CHL1      H26B           10.8507953513       14.8374145842       -4.2049100000  MEMB      102             0.0000000000
     11739       102  CHL1      H26C            9.2895693752       15.4520243796       -3.7406500000  MEMB      102             0.0000000000
     11740       102  CHL1      C27             8.2746687886       12.8439138352       -3.0423000000  MEMB      102             0.0000000000
     11741       102  CHL1      H27A            7.4753628657       13.6152663080       -3.0634000000  MEMB      102             0.0000000000
     11742       102  CHL1      H27B            7.8516542168       11.9080319714       -3.4659800000  MEMB      102             0.0000000000
     11743       102  CHL1      H27C            8.6373879178       12.6068220349       -2.0193000000  MEMB      102             0.0000000000
     11744       103  SAPI      C12            10.9124755565       -1.2684950656      -24.6187713007  MEMB      103             0.0000000000
     11745       103  SAPI      H2              9.8842822078       -1.0211480432      -24.2782440997  MEMB      103             0.0000000000
     11746       103  SAPI      O2             10.7790712113       -2.6967180550      -24.6426789001  MEMB      103             0.0000000000
     11747       103  SAPI      HO2            11.2852808238       -3.0573346747      -23.9110318907  MEMB      103             0.0000000000
     11748       103  SAPI      C13            11.2475998347       -0.7140066636      -25.9291796636  MEMB      103             0.0000000000
     11749       103  SAPI      H3             11.2021238835        0.3960577780      -25.9323192761  MEMB      103             0.0000000000
     11750       103  SAPI      O3             10.1864394568       -1.1401556185      -26.7773640043  MEMB      103             0.0000000000
     11751       103  SAPI      HO3            10.0704983307       -2.0927564193      -26.8039992296  MEMB      103             0.0000000000
     11752       103  SAPI      C14            12.6194122213       -1.2490410670      -26.4070170518  MEMB      103             0.0000000000
     11753       103  SAPI      H4             12.5192050303       -2.3554152962      -26.4217014675  MEMB      103             0.0000000000
     11754       103  SAPI      O4             12.9198698461       -0.7794260346      -27.7425217158  MEMB      103             0.0000000000
     11755       103  SAPI      HO4            13.1544724020       -1.5840451607      -28.2106557510  MEMB      103             0.0000000000
     11756       103  SAPI      C15            13.6674195950       -0.8267629045      -25.4466947511  MEMB      103             0.0000000000
     11757       103  SAPI      H5             13.6854199660        0.2732481173      -25.2918638265  MEMB      103             0.0000000000
     11758       103  SAPI      O5             14.9834530465       -1.2683965277      -25.8287878330  MEMB      103             0.0000000000
     11759       103  SAPI      HO5            14.9316046970       -2.2257394470      -25.7797341534  MEMB      103             0.0000000000
     11760       103  SAPI      C16            13.3349520466       -1.4045347170      -24.0488854576  MEMB      103             0.0000000000
     11761       103  SAPI      H6             13.2398655374       -2.4921932754      -24.2545019962  MEMB      103             0.0000000000
     11762       103  SAPI      O6             14.4004830077       -1.2409464778      -23.0301821224  MEMB      103             0.0000000000
     11763       103  SAPI      HO6            14.2470931799       -1.9107841952      -22.3598173040  MEMB      103             0.0000000000
     11764       103  SAPI      C11            11.9661762644       -0.8757647202      -23.5575915518  MEMB      103             0.0000000000
     11765       103  SAPI      H1             12.1230581935        0.2240486219      -23.5466554344  MEMB      103             0.0000000000
     11766       103  SAPI      P              10.9749492052       -0.5934565782      -21.0684222392  MEMB      103             0.0000000000
     11767       103  SAPI      O13             9.5991621640       -0.1906125628      -21.4682333044  MEMB      103             0.0000000000
     11768       103  SAPI      O14            11.9200226228        0.3898254906      -20.5662976881  MEMB      103             0.0000000000
     11769       103  SAPI      O12            11.5758108564       -1.4226912511      -22.2885961081  MEMB      103             0.0000000000
     11770       103  SAPI      O11            10.8550936023       -1.6855037043      -19.9013593355  MEMB      103             0.0000000000
     11771       103  SAPI      C1              9.6561539437       -1.9728448263      -19.2118449672  MEMB      103             0.0000000000
     11772       103  SAPI      HA              8.8054539201       -1.7768667818      -19.8990297951  MEMB      103             0.0000000000
     11773       103  SAPI      HB              9.7095860559       -3.0607631541      -18.9929849449  MEMB      103             0.0000000000
     11774       103  SAPI      C2              9.3792082657       -1.1046234857      -17.9587965036  MEMB      103             0.0000000000
     11775       103  SAPI      HS              9.6132441955       -0.0273123226      -18.0964510686  MEMB      103             0.0000000000
     11776       103  SAPI      O21            10.1250451119       -1.4885543320      -16.7836882638  MEMB      103             0.0000000000
     11777       103  SAPI      C21            11.4400218523       -1.2929496692      -16.6739573375  MEMB      103             0.0000000000
     11778       103  SAPI      O22            12.1034003765       -0.6752619325      -17.5006651061  MEMB      103             0.0000000000
     11779       103  SAPI      C22            11.8845540383       -2.0113166272      -15.4087738590  MEMB      103             0.0000000000
     11780       103  SAPI      H2R            11.3313046184       -1.6347240024      -14.5219737128  MEMB      103             0.0000000000
     11781       103  SAPI      H2S            11.5666922114       -3.0616892129      -15.5819850789  MEMB      103             0.0000000000
     11782       103  SAPI      C3              7.8729553567       -1.0813203042      -17.5364498224  MEMB      103             0.0000000000
     11783       103  SAPI      HX              7.4771841688       -2.0796393585      -17.2517655490  MEMB      103             0.0000000000
     11784       103  SAPI      HY              7.2334920678       -0.8560457964      -18.4165969230  MEMB      103             0.0000000000
     11785       103  SAPI      O31             7.6382424072       -0.1094507743      -16.5012957204  MEMB      103             0.0000000000
     11786       103  SAPI      C31             7.5356251386       -0.5298271903      -15.2165613824  MEMB      103             0.0000000000
     11787       103  SAPI      O32             7.5968451632       -1.7141146934      -14.8696605343  MEMB      103             0.0000000000
     11788       103  SAPI      C32             7.2281508974        0.6160903230      -14.2811713282  MEMB      103             0.0000000000
     11789       103  SAPI      H2X             6.1276933439        0.6863821752      -14.1456244941  MEMB      103             0.0000000000
     11790       103  SAPI      H2Y             7.4858884322        1.5445603970      -14.8341954733  MEMB      103             0.0000000000
     11791       103  SAPI      C23            13.4638401061       -1.9403562093      -15.3143033019  MEMB      103             0.0000000000
     11792       103  SAPI      H3R            14.0665590600       -2.2197063501      -16.2048166284  MEMB      103             0.0000000000
     11793       103  SAPI      H3S            13.5940441635       -2.6389439567      -14.4602871685  MEMB      103             0.0000000000
     11794       103  SAPI      C24            14.1367340264       -0.6112977761      -14.8704705841  MEMB      103             0.0000000000
     11795       103  SAPI      H4R            14.0375458935        0.1188353658      -15.7019684359  MEMB      103             0.0000000000
     11796       103  SAPI      H4S            15.1542469844       -1.0449168613      -14.7657686768  MEMB      103             0.0000000000
     11797       103  SAPI      C25            13.5776588432       -0.0794930150      -13.5650687112  MEMB      103             0.0000000000
     11798       103  SAPI      H5R            12.4813690437        0.0046936803      -13.5324945684  MEMB      103             0.0000000000
     11799       103  SAPI      C26            14.3369350111        0.1441117305      -12.4864411401  MEMB      103             0.0000000000
     11800       103  SAPI      H6R            13.7504654957        0.4059174104      -11.5934062896  MEMB      103             0.0000000000
     11801       103  SAPI      C27            15.7706434482       -0.0510674141      -12.3459750989  MEMB      103             0.0000000000
     11802       103  SAPI      H7R            16.2484420075        0.7423004731      -11.7323003215  MEMB      103             0.0000000000
     11803       103  SAPI      H7S            16.3242420930        0.1654739822      -13.2845698224  MEMB      103             0.0000000000
     11804       103  SAPI      C28            16.2729508484       -1.4091255714      -11.8699475606  MEMB      103             0.0000000000
     11805       103  SAPI      H8R            16.7342545411       -2.1210873686      -12.5701684041  MEMB      103             0.0000000000
     11806       103  SAPI      C29            15.8353829837       -1.9096578206      -10.6763136652  MEMB      103             0.0000000000
     11807       103  SAPI      H9R            16.2966901095       -2.8546485307      -10.3535315615  MEMB      103             0.0000000000
     11808       103  SAPI      C210           14.9037727109       -1.3015918478       -9.6057088514  MEMB      103             0.0000000000
     11809       103  SAPI      H10R           14.2917255334       -2.1296678051       -9.1885646973  MEMB      103             0.0000000000
     11810       103  SAPI      H10S           14.1709569263       -0.5116965814       -9.8765732365  MEMB      103             0.0000000000
     11811       103  SAPI      C211           15.8366506024       -0.7799552928       -8.4688444356  MEMB      103             0.0000000000
     11812       103  SAPI      H11R           16.4321351154        0.0659911092       -8.8427064200  MEMB      103             0.0000000000
     11813       103  SAPI      C212           16.0548709130       -1.2940547466       -7.2052406440  MEMB      103             0.0000000000
     11814       103  SAPI      H12R           16.8330630257       -0.7733963765       -6.6278912529  MEMB      103             0.0000000000
     11815       103  SAPI      C213           15.4077449786       -2.4462081800       -6.5226005862  MEMB      103             0.0000000000
     11816       103  SAPI      H13R           15.7369588980       -2.4518377074       -5.4615133844  MEMB      103             0.0000000000
     11817       103  SAPI      H13S           15.9918222850       -3.2689584349       -6.9876348534  MEMB      103             0.0000000000
     11818       103  SAPI      C214           13.9551775975       -2.7209731905       -6.6666063698  MEMB      103             0.0000000000
     11819       103  SAPI      H14R           13.8204033235       -3.8106506520       -6.7332329213  MEMB      103             0.0000000000
     11820       103  SAPI      C215           12.9131739268       -1.8690413551       -6.7677896180  MEMB      103             0.0000000000
     11821       103  SAPI      H15R           11.9641174856       -2.3781956166       -6.9915162178  MEMB      103             0.0000000000
     11822       103  SAPI      C216           12.9577278542       -0.3441698739       -6.7718143840  MEMB      103             0.0000000000
     11823       103  SAPI      H16R           12.0307615504        0.1598799340       -7.1196486073  MEMB      103             0.0000000000
     11824       103  SAPI      H16S           13.7438494136        0.0437354406       -7.4543561777  MEMB      103             0.0000000000
     11825       103  SAPI      C217           13.3071574953        0.2075731384       -5.3800078678  MEMB      103             0.0000000000
     11826       103  SAPI      H17R           13.2678209138        1.3104778263       -5.5079707215  MEMB      103             0.0000000000
     11827       103  SAPI      H17S           14.3499676657        0.0108881351       -5.0510948948  MEMB      103             0.0000000000
     11828       103  SAPI      C218           12.2454544800       -0.1249938247       -4.2955502330  MEMB      103             0.0000000000
     11829       103  SAPI      H18R           12.1225760029       -1.2288183343       -4.2673813788  MEMB      103             0.0000000000
     11830       103  SAPI      H18S           11.2913428070        0.3472767492       -4.6132804059  MEMB      103             0.0000000000
     11831       103  SAPI      C219           12.7066422689        0.2873406489       -2.9092898913  MEMB      103             0.0000000000
     11832       103  SAPI      H19R           13.7017014270       -0.1224986527       -2.6332281863  MEMB      103             0.0000000000
     11833       103  SAPI      H19S           11.9547968218       -0.1362451532       -2.2095584434  MEMB      103             0.0000000000
     11834       103  SAPI      C220           12.6974721438        1.7942778599       -2.6269516210  MEMB      103             0.0000000000
     11835       103  SAPI      H20R           13.2288100911        2.2930359892       -3.4655462215  MEMB      103             0.0000000000
     11836       103  SAPI      H20S           13.0237135583        1.9827422926       -1.5817875809  MEMB      103             0.0000000000
     11837       103  SAPI      H20T           11.6639041247        2.1556496102       -2.8152812459  MEMB      103             0.0000000000
     11838       103  SAPI      C33             8.0386971942        0.4029173386      -13.0179094510  MEMB      103             0.0000000000
     11839       103  SAPI      H3X             7.9188536527       -0.6047815223      -12.5656911164  MEMB      103             0.0000000000
     11840       103  SAPI      H3Y             7.6118745606        1.0456064541      -12.2184759656  MEMB      103             0.0000000000
     11841       103  SAPI      C34             9.5920858088        0.6116888449      -13.2643107916  MEMB      103             0.0000000000
     11842       103  SAPI      H4X             9.7200373436        1.4431279931      -13.9900230331  MEMB      103             0.0000000000
     11843       103  SAPI      H4Y            10.0259755798       -0.2764623802      -13.7715070891  MEMB      103             0.0000000000
     11844       103  SAPI      C35            10.4489245462        1.0644451866      -12.0656312642  MEMB      103             0.0000000000
     11845       103  SAPI      H5X            10.1237057148        2.0668088666      -11.7137491170  MEMB      103             0.0000000000
     11846       103  SAPI      H5Y            11.4694291155        1.2918104212      -12.4413925876  MEMB      103             0.0000000000
     11847       103  SAPI      C36            10.5058972491        0.1404504331      -10.8260700056  MEMB      103             0.0000000000
     11848       103  SAPI      H6X             9.4965738744        0.3763807864      -10.4261651446  MEMB      103             0.0000000000
     11849       103  SAPI      H6Y            11.2571619449        0.5515514759      -10.1183139025  MEMB      103             0.0000000000
     11850       103  SAPI      C37            10.7365355878       -1.2589828147      -11.1133124856  MEMB      103             0.0000000000
     11851       103  SAPI      H7X            11.7372781859       -1.4159754535      -11.5695896739  MEMB      103             0.0000000000
     11852       103  SAPI      H7Y             9.9703581757       -1.5933520256      -11.8450844089  MEMB      103             0.0000000000
     11853       103  SAPI      C38            10.7709957686       -2.1720664552       -9.9122177377  MEMB      103             0.0000000000
     11854       103  SAPI      H8X             9.8478937734       -2.0971601491       -9.2985458260  MEMB      103             0.0000000000
     11855       103  SAPI      H8Y            11.6127707435       -1.8060930749       -9.2862788744  MEMB      103             0.0000000000
     11856       103  SAPI      C39            11.1926742992       -3.5865163780      -10.1911135355  MEMB      103             0.0000000000
     11857       103  SAPI      H9X            12.2398933514       -3.6983464130      -10.5448755999  MEMB      103             0.0000000000
     11858       103  SAPI      H9Y            10.5669264959       -3.9967816770      -11.0123589803  MEMB      103             0.0000000000
     11859       103  SAPI      C310           11.1202494409       -4.5171030501       -8.9438287985  MEMB      103             0.0000000000
     11860       103  SAPI      H10X           11.5847189347       -4.0735805174       -8.0372549373  MEMB      103             0.0000000000
     11861       103  SAPI      H10Y           11.7385654186       -5.3684625337       -9.3004712638  MEMB      103             0.0000000000
     11862       103  SAPI      C311            9.6488698358       -4.9726538913       -8.4279622077  MEMB      103             0.0000000000
     11863       103  SAPI      H11X            9.0722780560       -5.2654597692       -9.3313599581  MEMB      103             0.0000000000
     11864       103  SAPI      H11Y            9.1727988934       -4.0989543784       -7.9336683804  MEMB      103             0.0000000000
     11865       103  SAPI      C312            9.6054959750       -6.1535195360       -7.4515354284  MEMB      103             0.0000000000
     11866       103  SAPI      H12X            9.9540451078       -7.0323362280       -8.0350724684  MEMB      103             0.0000000000
     11867       103  SAPI      H12Y            8.6193882411       -6.5730406967       -7.1584237369  MEMB      103             0.0000000000
     11868       103  SAPI      C313           10.3720763416       -6.0289097614       -6.1443060832  MEMB      103             0.0000000000
     11869       103  SAPI      H13X           11.4039757623       -5.7575035929       -6.4538915340  MEMB      103             0.0000000000
     11870       103  SAPI      H13Y           10.3740204303       -7.0366238281       -5.6765133758  MEMB      103             0.0000000000
     11871       103  SAPI      C314            9.7624393890       -5.0617953784       -5.1750157626  MEMB      103             0.0000000000
     11872       103  SAPI      H14X            9.5746232219       -4.0763022350       -5.6523502764  MEMB      103             0.0000000000
     11873       103  SAPI      H14Y           10.5506294671       -4.8100988271       -4.4335803247  MEMB      103             0.0000000000
     11874       103  SAPI      C315            8.5738716045       -5.5636215950       -4.4305906990  MEMB      103             0.0000000000
     11875       103  SAPI      H15X            8.7043439533       -6.5750564173       -3.9897979352  MEMB      103             0.0000000000
     11876       103  SAPI      H15Y            7.8558661251       -5.7406527970       -5.2597162870  MEMB      103             0.0000000000
     11877       103  SAPI      C316            8.1681714792       -4.5075346489       -3.3588824735  MEMB      103             0.0000000000
     11878       103  SAPI      H16X            7.1896089027       -4.5793890001       -2.8377560141  MEMB      103             0.0000000000
     11879       103  SAPI      H16Y            7.9379814175       -3.5579737800       -3.8877184939  MEMB      103             0.0000000000
     11880       103  SAPI      C317            9.1778828272       -4.2066850306       -2.2339294323  MEMB      103             0.0000000000
     11881       103  SAPI      H17X            8.8460506656       -3.2817650742       -1.7155366249  MEMB      103             0.0000000000
     11882       103  SAPI      H17Y           10.1879269322       -3.8966420879       -2.5774496326  MEMB      103             0.0000000000
     11883       103  SAPI      C318            9.2194121530       -5.2977164496       -1.1653324498  MEMB      103             0.0000000000
     11884       103  SAPI      H18X            9.5343040845       -4.9760029143       -0.1496225122  MEMB      103             0.0000000000
     11885       103  SAPI      H18Y            9.8743219502       -6.1395065078       -1.4764644630  MEMB      103             0.0000000000
     11886       103  SAPI      H18Z            8.1400267593       -5.5486503104       -1.0860867416  MEMB      103             0.0000000000
     11887       104  SAPS      N              -8.4045746711       -3.3714872618      -20.9788988317  MEMB      104             0.0000000000
     11888       104  SAPS      HN1            -8.6186941828       -2.8213110632      -21.8350874381  MEMB      104             0.0000000000
     11889       104  SAPS      HN2            -7.4439811365       -3.1989205388      -20.6196208021  MEMB      104             0.0000000000
     11890       104  SAPS      HN3            -8.5248110418       -4.4045076882      -20.9823613551  MEMB      104             0.0000000000
     11891       104  SAPS      C12            -9.4047277140       -2.8690407662      -19.8969000681  MEMB      104             0.0000000000
     11892       104  SAPS      H12A           -9.1396802548       -3.3709550974      -18.9780791769  MEMB      104             0.0000000000
     11893       104  SAPS      C13            -9.3699766638       -1.4259934884      -19.5466721345  MEMB      104             0.0000000000
     11894       104  SAPS      O13A           -8.7457091468       -0.7068339395      -20.3362567149  MEMB      104             0.0000000000
     11895       104  SAPS      O13B          -10.2937408386       -0.9369920194      -18.8722696167  MEMB      104             0.0000000000
     11896       104  SAPS      C11           -10.8397898808       -3.2692797485      -20.4039587120  MEMB      104             0.0000000000
     11897       104  SAPS      H11A          -11.1788161750       -2.5498235378      -21.1796937823  MEMB      104             0.0000000000
     11898       104  SAPS      H11B          -11.5118142392       -3.0984875498      -19.5358951626  MEMB      104             0.0000000000
     11899       104  SAPS      P             -10.8125953185       -5.8427491494      -20.0081399899  MEMB      104             0.0000000000
     11900       104  SAPS      O13           -11.6883381053       -6.9523630809      -20.5456005429  MEMB      104             0.0000000000
     11901       104  SAPS      O14            -9.3300329053       -6.1447549419      -19.8524513622  MEMB      104             0.0000000000
     11902       104  SAPS      O12           -10.9624649852       -4.5798197953      -20.9631410612  MEMB      104             0.0000000000
     11903       104  SAPS      O11           -11.3887342686       -5.3895384840      -18.5957109373  MEMB      104             0.0000000000
     11904       104  SAPS      C1            -12.1506610415       -6.1180796467      -17.7204257831  MEMB      104             0.0000000000
     11905       104  SAPS      HA            -13.0745283257       -6.3270741889      -18.3010387374  MEMB      104             0.0000000000
     11906       104  SAPS      HB            -11.6257160243       -7.0772654937      -17.5236614833  MEMB      104             0.0000000000
     11907       104  SAPS      C2            -12.4626602570       -5.2673403372      -16.5196213202  MEMB      104             0.0000000000
     11908       104  SAPS      HS            -12.8907721223       -4.3049922594      -16.8730717570  MEMB      104             0.0000000000
     11909       104  SAPS      O21           -11.1900160035       -5.0572307686      -15.8940886006  MEMB      104             0.0000000000
     11910       104  SAPS      C21           -10.5176394756       -3.9366530900      -16.2092135467  MEMB      104             0.0000000000
     11911       104  SAPS      O22           -10.8668926925       -3.0295110635      -16.9238330106  MEMB      104             0.0000000000
     11912       104  SAPS      C22            -9.3081982446       -3.9072910833      -15.3484845356  MEMB      104             0.0000000000
     11913       104  SAPS      H2R            -8.6404812293       -4.7385043649      -15.6608295864  MEMB      104             0.0000000000
     11914       104  SAPS      H2S            -8.8040206669       -2.9383123777      -15.5514778013  MEMB      104             0.0000000000
     11915       104  SAPS      C3            -13.3773995735       -5.9219279481      -15.4842673894  MEMB      104             0.0000000000
     11916       104  SAPS      HX            -13.1344870897       -7.0035102178      -15.4101413839  MEMB      104             0.0000000000
     11917       104  SAPS      HY            -14.4501755704       -5.8099793257      -15.7506144587  MEMB      104             0.0000000000
     11918       104  SAPS      O31           -13.1328458322       -5.3651986507      -14.1568862472  MEMB      104             0.0000000000
     11919       104  SAPS      C31           -13.8209392186       -4.2718249720      -13.8823634826  MEMB      104             0.0000000000
     11920       104  SAPS      O32           -14.7368100427       -3.8762177506      -14.5630764945  MEMB      104             0.0000000000
     11921       104  SAPS      C32           -13.4453164448       -3.7210678597      -12.4974315350  MEMB      104             0.0000000000
     11922       104  SAPS      H2X           -12.4197492719       -4.0888407265      -12.2800013763  MEMB      104             0.0000000000
     11923       104  SAPS      H2Y           -14.0821820588       -4.1872577985      -11.7155169274  MEMB      104             0.0000000000
     11924       104  SAPS      C23            -9.6085787052       -4.0752936224      -13.9148033967  MEMB      104             0.0000000000
     11925       104  SAPS      H3R           -10.3952230853       -4.8454347712      -13.7651567580  MEMB      104             0.0000000000
     11926       104  SAPS      H3S           -10.0925202210       -3.1992167960      -13.4325055780  MEMB      104             0.0000000000
     11927       104  SAPS      C24            -8.2755575844       -4.2015368673      -13.1251600658  MEMB      104             0.0000000000
     11928       104  SAPS      H4R            -7.7491880073       -3.2397770223      -13.3048095729  MEMB      104             0.0000000000
     11929       104  SAPS      H4S            -7.6758797070       -5.0162265669      -13.5844943338  MEMB      104             0.0000000000
     11930       104  SAPS      C25            -8.5539180090       -4.3096354988      -11.6733840811  MEMB      104             0.0000000000
     11931       104  SAPS      H5R            -8.9035743822       -3.3498005089      -11.2653928825  MEMB      104             0.0000000000
     11932       104  SAPS      C26            -8.3982403772       -5.3200246352      -10.8037542436  MEMB      104             0.0000000000
     11933       104  SAPS      H6R            -8.6791259188       -5.1185889875       -9.7594707356  MEMB      104             0.0000000000
     11934       104  SAPS      C27            -7.8538026394       -6.6590791231      -11.2184739679  MEMB      104             0.0000000000
     11935       104  SAPS      H7R            -7.3264502790       -7.1287038006      -10.3607606699  MEMB      104             0.0000000000
     11936       104  SAPS      H7S            -7.1824571140       -6.6142264210      -12.1025583476  MEMB      104             0.0000000000
     11937       104  SAPS      C28            -8.8981082533       -7.6079445824      -11.7072647219  MEMB      104             0.0000000000
     11938       104  SAPS      H8R            -8.7581266011       -8.1874130451      -12.6317218490  MEMB      104             0.0000000000
     11939       104  SAPS      C29            -9.9460693092       -8.0097830372      -10.9244698010  MEMB      104             0.0000000000
     11940       104  SAPS      H9R           -10.6026429045       -8.8356247120      -11.2357517584  MEMB      104             0.0000000000
     11941       104  SAPS      C210          -10.2625406778       -7.5558240832       -9.5021229355  MEMB      104             0.0000000000
     11942       104  SAPS      H10R           -9.3772034004       -7.2746940280       -8.8926434213  MEMB      104             0.0000000000
     11943       104  SAPS      H10S          -10.7736706658       -8.4313897762       -9.0477530171  MEMB      104             0.0000000000
     11944       104  SAPS      C211          -11.1785128621       -6.3541228010       -9.4440486813  MEMB      104             0.0000000000
     11945       104  SAPS      H11R          -11.4083606118       -5.8572813990      -10.3981545267  MEMB      104             0.0000000000
     11946       104  SAPS      C212          -11.5019717018       -5.7397357363       -8.2858170662  MEMB      104             0.0000000000
     11947       104  SAPS      H12R          -12.1115971147       -4.8263690852       -8.3499903489  MEMB      104             0.0000000000
     11948       104  SAPS      C213          -11.1254392801       -6.0777257036       -6.8916035610  MEMB      104             0.0000000000
     11949       104  SAPS      H13R          -10.6901240516       -5.1700582125       -6.4215385287  MEMB      104             0.0000000000
     11950       104  SAPS      H13S          -10.2949139671       -6.8075268772       -7.0008700532  MEMB      104             0.0000000000
     11951       104  SAPS      C214          -12.1018707303       -6.7165237618       -6.0411317845  MEMB      104             0.0000000000
     11952       104  SAPS      H14R          -11.8925689491       -7.7837130590       -5.8759060743  MEMB      104             0.0000000000
     11953       104  SAPS      C215          -13.0900839025       -6.0869026603       -5.4437086336  MEMB      104             0.0000000000
     11954       104  SAPS      H15R          -13.8207022464       -6.7737926734       -4.9916255087  MEMB      104             0.0000000000
     11955       104  SAPS      C216          -13.4824899053       -4.6807912340       -5.4449984134  MEMB      104             0.0000000000
     11956       104  SAPS      H16R          -14.5812940899       -4.5442083030       -5.5360785378  MEMB      104             0.0000000000
     11957       104  SAPS      H16S          -13.0610231838       -4.3126890342       -6.4047832502  MEMB      104             0.0000000000
     11958       104  SAPS      C217          -12.9826315093       -3.7611867519       -4.2845336649  MEMB      104             0.0000000000
     11959       104  SAPS      H17R          -13.3460792042       -4.0712136480       -3.2814835690  MEMB      104             0.0000000000
     11960       104  SAPS      H17S          -13.4679036231       -2.8366832720       -4.6641723798  MEMB      104             0.0000000000
     11961       104  SAPS      C218          -11.5169358931       -3.5088769719       -4.3589078146  MEMB      104             0.0000000000
     11962       104  SAPS      H18R          -11.1786164906       -2.9568809610       -5.2617703258  MEMB      104             0.0000000000
     11963       104  SAPS      H18S          -10.8483601024       -4.3948233548       -4.4081681327  MEMB      104             0.0000000000
     11964       104  SAPS      C219          -11.0940783170       -2.6345035604       -3.2286516494  MEMB      104             0.0000000000
     11965       104  SAPS      H19R          -11.8525905081       -1.8264812233       -3.1506757762  MEMB      104             0.0000000000
     11966       104  SAPS      H19S          -10.1129526192       -2.2054338460       -3.5246450516  MEMB      104             0.0000000000
     11967       104  SAPS      C220          -11.0492009525       -3.2952149159       -1.8520519803  MEMB      104             0.0000000000
     11968       104  SAPS      H20R          -12.0689418410       -3.4124471952       -1.4269561989  MEMB      104             0.0000000000
     11969       104  SAPS      H20S          -10.6266005350       -2.5720622086       -1.1221335926  MEMB      104             0.0000000000
     11970       104  SAPS      H20T          -10.4709624199       -4.2438228338       -1.8622662855  MEMB      104             0.0000000000
     11971       104  SAPS      C33           -13.4906103531       -2.2347808015      -12.5809489183  MEMB      104             0.0000000000
     11972       104  SAPS      H3X           -14.4267530882       -2.0069546436      -13.1341693995  MEMB      104             0.0000000000
     11973       104  SAPS      H3Y           -12.7283589019       -1.8392595256      -13.2858295513  MEMB      104             0.0000000000
     11974       104  SAPS      C34           -13.3901986329       -1.5733079338      -11.1671601404  MEMB      104             0.0000000000
     11975       104  SAPS      H4X           -14.2829863247       -1.7348241946      -10.5259404439  MEMB      104             0.0000000000
     11976       104  SAPS      H4Y           -13.3810862272       -0.4654859142      -11.2506383147  MEMB      104             0.0000000000
     11977       104  SAPS      C35           -12.0927358998       -1.8969219798      -10.4013886638  MEMB      104             0.0000000000
     11978       104  SAPS      H5X           -11.2145458263       -1.5845679702      -11.0059860580  MEMB      104             0.0000000000
     11979       104  SAPS      H5Y           -11.9525222290       -2.9968977103      -10.3327250928  MEMB      104             0.0000000000
     11980       104  SAPS      C36           -12.0376379289       -1.2449993329       -9.0385427731  MEMB      104             0.0000000000
     11981       104  SAPS      H6X           -12.9706220063       -1.5028063919       -8.4932016731  MEMB      104             0.0000000000
     11982       104  SAPS      H6Y           -12.1741626125       -0.1546869575       -9.2025584090  MEMB      104             0.0000000000
     11983       104  SAPS      C37           -10.7520021461       -1.4460437805       -8.1422082573  MEMB      104             0.0000000000
     11984       104  SAPS      H7X           -10.6099297007       -2.5243533450       -7.9155263180  MEMB      104             0.0000000000
     11985       104  SAPS      H7Y           -10.9518103981       -1.0659156778       -7.1175622653  MEMB      104             0.0000000000
     11986       104  SAPS      C38            -9.4700299208       -0.6617143943       -8.6588647052  MEMB      104             0.0000000000
     11987       104  SAPS      H8X            -9.7447059023        0.3768594783       -8.9421283342  MEMB      104             0.0000000000
     11988       104  SAPS      H8Y            -9.2362126759       -1.1729913039       -9.6171155471  MEMB      104             0.0000000000
     11989       104  SAPS      C39            -8.2283241847       -0.6872569932       -7.7218946726  MEMB      104             0.0000000000
     11990       104  SAPS      H9X            -8.3640707661        0.1569110105       -7.0124761444  MEMB      104             0.0000000000
     11991       104  SAPS      H9Y            -7.4525955111       -0.5648093033       -8.5077522857  MEMB      104             0.0000000000
     11992       104  SAPS      C310           -7.9771242693       -1.9022473814       -6.9070231184  MEMB      104             0.0000000000
     11993       104  SAPS      H10X           -8.7518789567       -2.0384674509       -6.1224716472  MEMB      104             0.0000000000
     11994       104  SAPS      H10Y           -6.9827340365       -1.7478306714       -6.4362099396  MEMB      104             0.0000000000
     11995       104  SAPS      C311           -7.7068264004       -3.1925347411       -7.7062827908  MEMB      104             0.0000000000
     11996       104  SAPS      H11X           -6.9420535902       -3.0406326452       -8.4977175538  MEMB      104             0.0000000000
     11997       104  SAPS      H11Y           -8.6562822118       -3.4290656385       -8.2325030398  MEMB      104             0.0000000000
     11998       104  SAPS      C312           -7.2218570840       -4.4559369175       -7.0467240223  MEMB      104             0.0000000000
     11999       104  SAPS      H12X           -7.1348329262       -5.1969355164       -7.8699309364  MEMB      104             0.0000000000
     12000       104  SAPS      H12Y           -8.0684955586       -4.7552404867       -6.3925516085  MEMB      104             0.0000000000
     12001       104  SAPS      C313           -5.9531523995       -4.3678871889       -6.1670297727  MEMB      104             0.0000000000
     12002       104  SAPS      H13X           -6.2122052834       -3.4468299462       -5.6023480283  MEMB      104             0.0000000000
     12003       104  SAPS      H13Y           -5.0868718653       -4.3402721086       -6.8620960866  MEMB      104             0.0000000000
     12004       104  SAPS      C314           -5.8577101341       -5.3738125524       -5.0353139471  MEMB      104             0.0000000000
     12005       104  SAPS      H14X           -4.9847016874       -5.0588761433       -4.4245817205  MEMB      104             0.0000000000
     12006       104  SAPS      H14Y           -5.4449820231       -6.3150768316       -5.4572118307  MEMB      104             0.0000000000
     12007       104  SAPS      C315           -7.0483497663       -5.6768436162       -4.1696044396  MEMB      104             0.0000000000
     12008       104  SAPS      H15X           -7.6307537053       -6.4796243289       -4.6702729572  MEMB      104             0.0000000000
     12009       104  SAPS      H15Y           -7.7041205780       -4.7948237412       -4.3318591626  MEMB      104             0.0000000000
     12010       104  SAPS      C316           -6.7721052669       -5.8182239724       -2.7011241295  MEMB      104             0.0000000000
     12011       104  SAPS      H16X           -6.4299392841       -4.8893113399       -2.1967771840  MEMB      104             0.0000000000
     12012       104  SAPS      H16Y           -5.9036042260       -6.4879832110       -2.5237832732  MEMB      104             0.0000000000
     12013       104  SAPS      C317           -8.0432485861       -6.4266607700       -2.1721225077  MEMB      104             0.0000000000
     12014       104  SAPS      H17X           -8.0579472698       -7.4054212692       -2.6976070756  MEMB      104             0.0000000000
     12015       104  SAPS      H17Y           -8.8498360764       -5.7098180639       -2.4364595677  MEMB      104             0.0000000000
     12016       104  SAPS      C318           -8.0903271573       -6.7586285098       -0.6477478008  MEMB      104             0.0000000000
     12017       104  SAPS      H18X           -9.0659461996       -7.0815432011       -0.2255936188  MEMB      104             0.0000000000
     12018       104  SAPS      H18Y           -7.9506197297       -5.7376394532       -0.2325560816  MEMB      104             0.0000000000
     12019       104  SAPS      H18Z           -7.2507771722       -7.4313885016       -0.3704921478  MEMB      104             0.0000000000
     12020       105  OSM       N              -7.7832618135        8.1561234653      -22.0163398936  MEMB      105             0.0000000000
     12021       105  OSM       C15            -9.0841785527        8.2097568066      -22.8438416828  MEMB      105             0.0000000000
     12022       105  OSM       H15A           -9.9367467329        7.9394425298      -22.2384842360  MEMB      105             0.0000000000
     12023       105  OSM       H15B           -9.0511864060        7.5064204941      -23.6627616247  MEMB      105             0.0000000000
     12024       105  OSM       H15C           -9.1290069012        9.2439531634      -23.1517834402  MEMB      105             0.0000000000
     12025       105  OSM       C14            -7.4037321362        6.7703249380      -21.8175207114  MEMB      105             0.0000000000
     12026       105  OSM       H14A           -6.4454813548        6.8194797506      -21.3217998645  MEMB      105             0.0000000000
     12027       105  OSM       H14B           -7.2998046892        6.3217797880      -22.7944578602  MEMB      105             0.0000000000
     12028       105  OSM       H14C           -8.2301651701        6.2688969415      -21.3358792500  MEMB      105             0.0000000000
     12029       105  OSM       C13            -6.6916136800        8.9706104144      -22.7534816526  MEMB      105             0.0000000000
     12030       105  OSM       H13A           -5.7535818089        8.8838916677      -22.2252995142  MEMB      105             0.0000000000
     12031       105  OSM       H13B           -7.0111104963       10.0015165174      -22.7929072588  MEMB      105             0.0000000000
     12032       105  OSM       H13C           -6.5516428123        8.6659656345      -23.7801263793  MEMB      105             0.0000000000
     12033       105  OSM       C12            -8.1685233059        8.7256866132      -20.6997780781  MEMB      105             0.0000000000
     12034       105  OSM       H12A           -7.2764096863        8.6063786571      -20.1028703049  MEMB      105             0.0000000000
     12035       105  OSM       H12B           -9.0187895452        8.1374886629      -20.3875754147  MEMB      105             0.0000000000
     12036       105  OSM       C11            -8.6227872739       10.1971889121      -20.6134050569  MEMB      105             0.0000000000
     12037       105  OSM       H11A           -8.8341961127       10.2998658800      -19.5275483718  MEMB      105             0.0000000000
     12038       105  OSM       H11B           -9.5583932179       10.3391472175      -21.1954792632  MEMB      105             0.0000000000
     12039       105  OSM       P              -7.1194747888       12.2460831044      -20.0360591371  MEMB      105             0.0000000000
     12040       105  OSM       O13            -5.9386893013       12.9640724706      -20.6530652367  MEMB      105             0.0000000000
     12041       105  OSM       O14            -8.3381829944       12.9986957923      -19.7185037830  MEMB      105             0.0000000000
     12042       105  OSM       O11            -6.6548658931       11.4491484630      -18.8252370743  MEMB      105             0.0000000000
     12043       105  OSM       O12            -7.5851960943       11.0618326359      -21.0227676923  MEMB      105             0.0000000000
     12044       105  OSM       C1S            -5.5873236211       11.9102996670      -17.9818363268  MEMB      105             0.0000000000
     12045       105  OSM       H1S            -5.5331257558       13.0168506774      -18.0650750019  MEMB      105             0.0000000000
     12046       105  OSM       H1T            -4.5919177234       11.5764938075      -18.3452389352  MEMB      105             0.0000000000
     12047       105  OSM       NF             -4.6596238049       11.8650486837      -15.7927552517  MEMB      105             0.0000000000
     12048       105  OSM       HNF            -3.9175844790       11.1992695928      -15.7815727418  MEMB      105             0.0000000000
     12049       105  OSM       C2S            -5.7532229816       11.3976840978      -16.4910833295  MEMB      105             0.0000000000
     12050       105  OSM       H2S            -6.6958401922       11.8604463004      -16.1282541386  MEMB      105             0.0000000000
     12051       105  OSM       C3S            -5.7434773067        9.9022022513      -16.3198698909  MEMB      105             0.0000000000
     12052       105  OSM       H3S            -4.8103046663        9.3792547446      -16.6199298579  MEMB      105             0.0000000000
     12053       105  OSM       O3             -6.7509774676        9.2453787970      -17.0816217784  MEMB      105             0.0000000000
     12054       105  OSM       HO3            -6.9516375161        9.7940472414      -17.8433951045  MEMB      105             0.0000000000
     12055       105  OSM       C4S            -6.0084830348        9.5263888067      -14.8730119069  MEMB      105             0.0000000000
     12056       105  OSM       H4S            -7.0284393961        9.5487213614      -14.4616844084  MEMB      105             0.0000000000
     12057       105  OSM       C5S            -5.0835925798        9.0241471757      -14.0465152822  MEMB      105             0.0000000000
     12058       105  OSM       H5S            -4.0731892614        8.8758065216      -14.4552695826  MEMB      105             0.0000000000
     12059       105  OSM       C6S            -5.3933976602        8.6942899485      -12.5797709950  MEMB      105             0.0000000000
     12060       105  OSM       H6S            -4.4831294206        8.3508513520      -12.0433170541  MEMB      105             0.0000000000
     12061       105  OSM       H6T            -6.2230631150        7.9582010762      -12.5153540732  MEMB      105             0.0000000000
     12062       105  OSM       C7S            -5.9351562455        9.9820582300      -11.8678436793  MEMB      105             0.0000000000
     12063       105  OSM       H7S            -6.8826234675       10.1954443194      -12.4073751029  MEMB      105             0.0000000000
     12064       105  OSM       H7T            -5.1982642187       10.8008030677      -12.0126474284  MEMB      105             0.0000000000
     12065       105  OSM       C8S            -6.2748252567        9.8466798046      -10.3794636444  MEMB      105             0.0000000000
     12066       105  OSM       H8S            -6.8150847594        8.8889602911      -10.2206736205  MEMB      105             0.0000000000
     12067       105  OSM       H8T            -6.9869633277       10.6688454637      -10.1531364521  MEMB      105             0.0000000000
     12068       105  OSM       C9S            -5.1012429863        9.8651763685       -9.3494350055  MEMB      105             0.0000000000
     12069       105  OSM       H9S            -4.5545060948       10.8298413258       -9.4188704281  MEMB      105             0.0000000000
     12070       105  OSM       H9T            -4.3362229315        9.1507738606       -9.7218520048  MEMB      105             0.0000000000
     12071       105  OSM       C10S           -5.5223408584        9.5096179643       -7.9982478553  MEMB      105             0.0000000000
     12072       105  OSM       H10S           -6.1008968502        8.5616476538       -7.9674886653  MEMB      105             0.0000000000
     12073       105  OSM       H10T           -6.2159652114       10.2850753251       -7.6085398810  MEMB      105             0.0000000000
     12074       105  OSM       C11S           -4.4211650562        9.3297910510       -6.9412427729  MEMB      105             0.0000000000
     12075       105  OSM       H11S           -3.5740735052        8.8916788845       -7.5111676533  MEMB      105             0.0000000000
     12076       105  OSM       H11T           -4.6232333693        8.5209533378       -6.2068917426  MEMB      105             0.0000000000
     12077       105  OSM       C12S           -3.7877769745       10.5893750439       -6.3496457726  MEMB      105             0.0000000000
     12078       105  OSM       H12S           -4.5843549096       11.2611304797       -5.9642513008  MEMB      105             0.0000000000
     12079       105  OSM       H12T           -3.3175008015       11.1966742280       -7.1523594187  MEMB      105             0.0000000000
     12080       105  OSM       C13S           -2.6974415979       10.2333456022       -5.2743295049  MEMB      105             0.0000000000
     12081       105  OSM       H13S           -2.1686200126       11.1716927667       -5.0019810016  MEMB      105             0.0000000000
     12082       105  OSM       H13T           -1.9351912298        9.5025379695       -5.6196061118  MEMB      105             0.0000000000
     12083       105  OSM       C14S           -3.3469801373        9.7972920080       -3.9715914728  MEMB      105             0.0000000000
     12084       105  OSM       H14S           -2.5129766539        9.7158295414       -3.2421250312  MEMB      105             0.0000000000
     12085       105  OSM       H14T           -3.8033219804        8.8041717544       -4.1710557804  MEMB      105             0.0000000000
     12086       105  OSM       C15S           -4.5142956290       10.7226158700       -3.4557126446  MEMB      105             0.0000000000
     12087       105  OSM       H15S           -5.5062660188       10.5203588894       -3.9133250091  MEMB      105             0.0000000000
     12088       105  OSM       H15T           -4.2163347044       11.7422576484       -3.7810908384  MEMB      105             0.0000000000
     12089       105  OSM       C16S           -4.5803719051       10.8877528707       -1.8962413234  MEMB      105             0.0000000000
     12090       105  OSM       H16S           -5.3042505142       11.7177587021       -1.7499161781  MEMB      105             0.0000000000
     12091       105  OSM       H16T           -3.5907544106       11.2569853364       -1.5517916135  MEMB      105             0.0000000000
     12092       105  OSM       C17S           -5.0865014737        9.5535507013       -1.1041515839  MEMB      105             0.0000000000
     12093       105  OSM       H17S           -4.7434488062        8.7490825469       -1.7893299701  MEMB      105             0.0000000000
     12094       105  OSM       H17T           -6.1891051835        9.4229146069       -1.1431479752  MEMB      105             0.0000000000
     12095       105  OSM       C18S           -4.7556645180        9.5030590627        0.3675233910  MEMB      105             0.0000000000
     12096       105  OSM       H18S           -3.7986941572       10.0263153951        0.5790222586  MEMB      105             0.0000000000
     12097       105  OSM       H18T           -4.7882228102        8.4383286626        0.6831348210  MEMB      105             0.0000000000
     12098       105  OSM       H18U           -5.5478198711        9.9317171458        1.0179567294  MEMB      105             0.0000000000
     12099       105  OSM       C1F            -4.4179497671       13.1441632424      -15.3042988624  MEMB      105             0.0000000000
     12100       105  OSM       OF             -5.2650678921       14.0581418325      -15.3409447438  MEMB      105             0.0000000000
     12101       105  OSM       C2F            -2.9869891830       13.3261637753      -14.8315651853  MEMB      105             0.0000000000
     12102       105  OSM       H2F            -2.4835778642       13.9951607697      -15.5618673309  MEMB      105             0.0000000000
     12103       105  OSM       H2G            -2.4783247015       12.3449708694      -14.7182435136  MEMB      105             0.0000000000
     12104       105  OSM       C3F            -2.8539896032       14.1461836100      -13.4620968171  MEMB      105             0.0000000000
     12105       105  OSM       H3F            -3.3004949920       15.1542904517      -13.5987521456  MEMB      105             0.0000000000
     12106       105  OSM       H3G            -1.7633764578       14.3010038328      -13.3174766562  MEMB      105             0.0000000000
     12107       105  OSM       C4F            -3.5007217298       13.5047868902      -12.2540853865  MEMB      105             0.0000000000
     12108       105  OSM       H4F            -2.8452544677       12.6370935275      -12.0265072066  MEMB      105             0.0000000000
     12109       105  OSM       H4G            -4.5130566984       13.1340866430      -12.5225624241  MEMB      105             0.0000000000
     12110       105  OSM       C5F            -3.6314946710       14.4391521398      -11.1452519500  MEMB      105             0.0000000000
     12111       105  OSM       H5F            -3.9849445996       15.4426787810      -11.4651401321  MEMB      105             0.0000000000
     12112       105  OSM       H5G            -2.5965232316       14.5753372071      -10.7649768691  MEMB      105             0.0000000000
     12113       105  OSM       C6F            -4.5216622449       13.8757056092      -10.1164864966  MEMB      105             0.0000000000
     12114       105  OSM       H6F            -4.2607748127       14.2981904277       -9.1226231701  MEMB      105             0.0000000000
     12115       105  OSM       H6G            -4.3567003810       12.7835861308       -9.9965559926  MEMB      105             0.0000000000
     12116       105  OSM       C7F            -6.0209450093       14.3090261206      -10.3050778350  MEMB      105             0.0000000000
     12117       105  OSM       H7F            -6.2895744496       14.0795593948      -11.3584077474  MEMB      105             0.0000000000
     12118       105  OSM       H7G            -5.9854481083       15.4161643238      -10.2196019835  MEMB      105             0.0000000000
     12119       105  OSM       C8F            -6.8922459562       13.5647916976       -9.3294844672  MEMB      105             0.0000000000
     12120       105  OSM       H8F            -6.4153048976       13.7963965018       -8.3531608854  MEMB      105             0.0000000000
     12121       105  OSM       H8G            -6.7050287672       12.5061416405       -9.6097180336  MEMB      105             0.0000000000
     12122       105  OSM       C9F            -8.3287558786       13.8344280220       -9.5019977339  MEMB      105             0.0000000000
     12123       105  OSM       H9F            -8.5642733741       14.6583091129      -10.1917455432  MEMB      105             0.0000000000
     12124       105  OSM       C10F           -9.2423618368       13.0226450256       -8.9456821232  MEMB      105             0.0000000000
     12125       105  OSM       H10F          -10.3086848624       13.2666390081       -9.0615330626  MEMB      105             0.0000000000
     12126       105  OSM       C11F           -8.8905412767       11.7612739910       -8.0643872376  MEMB      105             0.0000000000
     12127       105  OSM       H11F           -8.0343154758       11.1614878522       -8.4404919728  MEMB      105             0.0000000000
     12128       105  OSM       H11G           -9.7072894031       11.0728258031       -8.3698092077  MEMB      105             0.0000000000
     12129       105  OSM       C12F           -8.8766254896       12.0329258684       -6.5642977699  MEMB      105             0.0000000000
     12130       105  OSM       H12F           -9.9201807673       12.1561814595       -6.2035738618  MEMB      105             0.0000000000
     12131       105  OSM       H12G           -8.3460413789       12.9857942039       -6.3525359161  MEMB      105             0.0000000000
     12132       105  OSM       C13F           -8.0856870256       11.0154504468       -5.6085723743  MEMB      105             0.0000000000
     12133       105  OSM       H13F           -7.0301567875       11.2786668582       -5.8341690185  MEMB      105             0.0000000000
     12134       105  OSM       H13G           -8.2119674878        9.9744853390       -5.9756769985  MEMB      105             0.0000000000
     12135       105  OSM       C14F           -8.4439350310       11.1522289303       -4.1307157546  MEMB      105             0.0000000000
     12136       105  OSM       H14F           -7.9809525508       10.3136955437       -3.5678393048  MEMB      105             0.0000000000
     12137       105  OSM       H14G           -9.5456757174       11.2082145568       -3.9989814771  MEMB      105             0.0000000000
     12138       105  OSM       C15F           -7.8000951071       12.4720596203       -3.5603967032  MEMB      105             0.0000000000
     12139       105  OSM       H15F           -7.7241690382       13.2801146838       -4.3190814566  MEMB      105             0.0000000000
     12140       105  OSM       H15G           -6.7127028652       12.3626516334       -3.3605732509  MEMB      105             0.0000000000
     12141       105  OSM       C16F           -8.3961741679       13.0772675352       -2.2367626926  MEMB      105             0.0000000000
     12142       105  OSM       H16F           -9.4899395916       12.9600887388       -2.3925388133  MEMB      105             0.0000000000
     12143       105  OSM       H16G           -8.1467693061       14.1437272859       -2.0502631842  MEMB      105             0.0000000000
     12144       105  OSM       C17F           -8.0260224631       12.2592026417       -0.9520300947  MEMB      105             0.0000000000
     12145       105  OSM       H17F           -6.9430965982       12.3090152320       -0.7089013707  MEMB      105             0.0000000000
     12146       105  OSM       H17G           -8.2953894076       11.2212456401       -1.2425608974  MEMB      105             0.0000000000
     12147       105  OSM       C18F           -8.6740604655       12.7512303235        0.3309544187  MEMB      105             0.0000000000
     12148       105  OSM       H18F           -8.6024125143       11.9759130512        1.1234650033  MEMB      105             0.0000000000
     12149       105  OSM       H18G           -9.7033753448       13.1622014185        0.2539194204  MEMB      105             0.0000000000
     12150       105  OSM       H18H           -8.0270646972       13.5419452870        0.7674041061  MEMB      105             0.0000000000
     12151       106  SOPE      N             -14.6051615575        5.7925728952      -22.1413952090  MEMB      106             0.0000000000
     12152       106  SOPE      HN1           -14.7356349798        5.4697785843      -23.1213852453  MEMB      106             0.0000000000
     12153       106  SOPE      HN2           -15.4223840335        6.3821700967      -21.8842517055  MEMB      106             0.0000000000
     12154       106  SOPE      HN3           -13.7004433864        6.3050329590      -22.1630660854  MEMB      106             0.0000000000
     12155       106  SOPE      C12           -14.5862157641        4.6367097628      -21.3060985493  MEMB      106             0.0000000000
     12156       106  SOPE      H12A          -14.4471026041        3.7502836008      -21.9612451961  MEMB      106             0.0000000000
     12157       106  SOPE      H12B          -15.5797741009        4.6629353343      -20.8096357346  MEMB      106             0.0000000000
     12158       106  SOPE      C11           -13.5454046821        4.8021452615      -20.1430753480  MEMB      106             0.0000000000
     12159       106  SOPE      H11A          -13.7611657376        3.9480699744      -19.4660793578  MEMB      106             0.0000000000
     12160       106  SOPE      H11B          -13.6487273292        5.6969424528      -19.4927036189  MEMB      106             0.0000000000
     12161       106  SOPE      P             -11.5740239799        3.2346842950      -20.9720801154  MEMB      106             0.0000000000
     12162       106  SOPE      O13           -10.1919663581        3.3044173430      -21.4381766148  MEMB      106             0.0000000000
     12163       106  SOPE      O14           -12.4792355450        2.3505084824      -21.6951860370  MEMB      106             0.0000000000
     12164       106  SOPE      O12           -12.2725572931        4.7219417318      -20.8441300032  MEMB      106             0.0000000000
     12165       106  SOPE      O11           -11.6117796218        2.8042769497      -19.4598581247  MEMB      106             0.0000000000
     12166       106  SOPE      C1            -10.9921624751        3.8373608584      -18.5830190349  MEMB      106             0.0000000000
     12167       106  SOPE      HA            -11.7390702575        4.6389602447      -18.3989318282  MEMB      106             0.0000000000
     12168       106  SOPE      HB            -10.1148809821        4.3233436767      -19.0610555257  MEMB      106             0.0000000000
     12169       106  SOPE      C2            -10.3885918126        3.3523818623      -17.1820750083  MEMB      106             0.0000000000
     12170       106  SOPE      HS             -9.4423242279        2.8190692706      -17.4154772083  MEMB      106             0.0000000000
     12171       106  SOPE      O21           -11.3609236571        2.5152548815      -16.4749363896  MEMB      106             0.0000000000
     12172       106  SOPE      C21           -10.8712958168        1.8852925335      -15.4297412222  MEMB      106             0.0000000000
     12173       106  SOPE      O22            -9.7001514426        1.5684675626      -15.2834051437  MEMB      106             0.0000000000
     12174       106  SOPE      C22           -12.1088274673        1.4470860226      -14.5730292210  MEMB      106             0.0000000000
     12175       106  SOPE      H2R           -12.6364573948        0.7923285729      -15.2991287900  MEMB      106             0.0000000000
     12176       106  SOPE      H2S           -12.7824012223        2.2547262586      -14.2147879958  MEMB      106             0.0000000000
     12177       106  SOPE      C3            -10.0113211420        4.6615469037      -16.2970852494  MEMB      106             0.0000000000
     12178       106  SOPE      HX             -9.4088268981        5.3629783820      -16.9129715370  MEMB      106             0.0000000000
     12179       106  SOPE      HY             -9.3114909153        4.4650087372      -15.4568878923  MEMB      106             0.0000000000
     12180       106  SOPE      O31           -11.2156637692        5.3203814937      -15.9472470175  MEMB      106             0.0000000000
     12181       106  SOPE      C31           -11.7665138645        5.0336554136      -14.7780106898  MEMB      106             0.0000000000
     12182       106  SOPE      O32           -11.1702507164        4.5165892648      -13.8347107076  MEMB      106             0.0000000000
     12183       106  SOPE      C32           -13.1875099360        5.5471022346      -14.7559149960  MEMB      106             0.0000000000
     12184       106  SOPE      H2X           -13.7570446325        5.0594277587      -15.5757470154  MEMB      106             0.0000000000
     12185       106  SOPE      H2Y           -13.1356067358        6.6390484003      -14.9541077288  MEMB      106             0.0000000000
     12186       106  SOPE      C23           -11.6647235189        0.5045231986      -13.4342003875  MEMB      106             0.0000000000
     12187       106  SOPE      H3R           -11.0694101449        1.0625714432      -12.6802078595  MEMB      106             0.0000000000
     12188       106  SOPE      H3S           -10.9755887117       -0.2693747898      -13.8348199956  MEMB      106             0.0000000000
     12189       106  SOPE      C24           -12.7864637151       -0.2804457326      -12.7081414452  MEMB      106             0.0000000000
     12190       106  SOPE      H4R           -13.2700658989       -0.9847267016      -13.4183801928  MEMB      106             0.0000000000
     12191       106  SOPE      H4S           -12.5015029626       -0.9805137329      -11.8938791598  MEMB      106             0.0000000000
     12192       106  SOPE      C25           -13.8825334217        0.6619162071      -12.0378357985  MEMB      106             0.0000000000
     12193       106  SOPE      H5R           -14.5188094917        1.2167506990      -12.7600775068  MEMB      106             0.0000000000
     12194       106  SOPE      H5S           -14.6324751690       -0.0008750102      -11.5555333695  MEMB      106             0.0000000000
     12195       106  SOPE      C26           -13.3444581545        1.6148215221      -10.9819138097  MEMB      106             0.0000000000
     12196       106  SOPE      H6R           -12.8964084732        2.4811421458      -11.5139479941  MEMB      106             0.0000000000
     12197       106  SOPE      H6S           -14.3266969973        1.9634356757      -10.5972111888  MEMB      106             0.0000000000
     12198       106  SOPE      C27           -12.3790475590        1.1739564922       -9.8430990016  MEMB      106             0.0000000000
     12199       106  SOPE      H7R           -12.8172474378        0.2785530590       -9.3526352201  MEMB      106             0.0000000000
     12200       106  SOPE      H7S           -11.4459141350        0.7866266115      -10.3052229844  MEMB      106             0.0000000000
     12201       106  SOPE      C28           -12.0013980375        2.3258097703       -8.8874089127  MEMB      106             0.0000000000
     12202       106  SOPE      H8R           -11.6166614166        3.2153918675       -9.4304946682  MEMB      106             0.0000000000
     12203       106  SOPE      H8S           -12.9393373225        2.6867804166       -8.4138150107  MEMB      106             0.0000000000
     12204       106  SOPE      C29           -11.0074820620        1.8147598096       -7.8961337530  MEMB      106             0.0000000000
     12205       106  SOPE      H91            -9.9751483215        2.1892921278       -7.9594787392  MEMB      106             0.0000000000
     12206       106  SOPE      C210          -11.2489410201        1.1456138458       -6.7704748688  MEMB      106             0.0000000000
     12207       106  SOPE      H101          -10.4126423548        0.8713339525       -6.1106451592  MEMB      106             0.0000000000
     12208       106  SOPE      C211          -12.5896397182        0.7327362848       -6.2160356938  MEMB      106             0.0000000000
     12209       106  SOPE      H11R          -12.6242944581       -0.3686625667       -6.0744701372  MEMB      106             0.0000000000
     12210       106  SOPE      H11S          -13.3217678052        1.0092583385       -7.0046078572  MEMB      106             0.0000000000
     12211       106  SOPE      C212          -12.8792124023        1.1245529500       -4.8081763428  MEMB      106             0.0000000000
     12212       106  SOPE      H12R          -13.8318060124        0.7110822015       -4.4133004311  MEMB      106             0.0000000000
     12213       106  SOPE      H12S          -12.9264719709        2.2278147622       -4.6861058842  MEMB      106             0.0000000000
     12214       106  SOPE      C213          -11.8406115836        0.6567034933       -3.7827925792  MEMB      106             0.0000000000
     12215       106  SOPE      H13R          -10.9161967698        1.1656048655       -4.1303508844  MEMB      106             0.0000000000
     12216       106  SOPE      H13S          -11.6907450366       -0.4434736783       -3.7444285752  MEMB      106             0.0000000000
     12217       106  SOPE      C214          -12.2667184419        1.0997041522       -2.3438565952  MEMB      106             0.0000000000
     12218       106  SOPE      H14R          -12.6296629628        2.1411491522       -2.2097495750  MEMB      106             0.0000000000
     12219       106  SOPE      H14S          -11.4133528190        0.8138170212       -1.6924309788  MEMB      106             0.0000000000
     12220       106  SOPE      C215          -13.3889823929        0.2090422163       -1.7195622967  MEMB      106             0.0000000000
     12221       106  SOPE      H15R          -13.0778814225       -0.8541737020       -1.8038815079  MEMB      106             0.0000000000
     12222       106  SOPE      H15S          -14.2738764348        0.2624749710       -2.3892113523  MEMB      106             0.0000000000
     12223       106  SOPE      C216          -13.8213971699        0.5399282692       -0.2781439953  MEMB      106             0.0000000000
     12224       106  SOPE      H16R          -14.2193804726        1.5740207883       -0.1970059245  MEMB      106             0.0000000000
     12225       106  SOPE      H16S          -12.9981721807        0.5011716968        0.4669194777  MEMB      106             0.0000000000
     12226       106  SOPE      C217          -15.0483031431       -0.3972395760        0.1519886203  MEMB      106             0.0000000000
     12227       106  SOPE      H17R          -15.4815955884       -0.2497214293        1.1643204802  MEMB      106             0.0000000000
     12228       106  SOPE      H17S          -14.6637518410       -1.4374717080        0.2180087957  MEMB      106             0.0000000000
     12229       106  SOPE      C218          -16.1636129061       -0.6511174181       -0.9462822852  MEMB      106             0.0000000000
     12230       106  SOPE      H18R          -16.5913221852       -1.6153631600       -0.5975475239  MEMB      106             0.0000000000
     12231       106  SOPE      H18S          -15.7855374248       -0.7458501198       -1.9866702180  MEMB      106             0.0000000000
     12232       106  SOPE      H18T          -16.9924783620        0.0626653186       -1.1407483567  MEMB      106             0.0000000000
     12233       106  SOPE      C33           -13.9438290417        5.0172842495      -13.4750047331  MEMB      106             0.0000000000
     12234       106  SOPE      H3X           -13.4074039781        5.1176889824      -12.5072811835  MEMB      106             0.0000000000
     12235       106  SOPE      H3Y           -14.1341653869        3.9404843298      -13.6714606460  MEMB      106             0.0000000000
     12236       106  SOPE      C34           -15.2977510663        5.7464916997      -13.3114094748  MEMB      106             0.0000000000
     12237       106  SOPE      H4X           -15.9226517287        5.8453157981      -14.2246748369  MEMB      106             0.0000000000
     12238       106  SOPE      H4Y           -15.0942662241        6.7974319322      -13.0140217378  MEMB      106             0.0000000000
     12239       106  SOPE      C35           -16.1126932848        5.1949220777      -12.1571526100  MEMB      106             0.0000000000
     12240       106  SOPE      H5X           -16.5206874948        4.1965887287      -12.4239710197  MEMB      106             0.0000000000
     12241       106  SOPE      H5Y           -17.0332067093        5.8019373403      -12.0211069502  MEMB      106             0.0000000000
     12242       106  SOPE      C36           -15.4524833666        5.0673563501      -10.7061761276  MEMB      106             0.0000000000
     12243       106  SOPE      H6X           -14.9116929522        5.9988939830      -10.4339551367  MEMB      106             0.0000000000
     12244       106  SOPE      H6Y           -14.8059032922        4.1744127111      -10.8436776116  MEMB      106             0.0000000000
     12245       106  SOPE      C37           -16.4542859598        4.5880100427       -9.5553888501  MEMB      106             0.0000000000
     12246       106  SOPE      H7X           -16.9125472697        3.6295343812       -9.8804146402  MEMB      106             0.0000000000
     12247       106  SOPE      H7Y           -17.2924548171        5.3089040340       -9.4453603486  MEMB      106             0.0000000000
     12248       106  SOPE      C38           -15.6623963879        4.5614968535       -8.2935049709  MEMB      106             0.0000000000
     12249       106  SOPE      H8X           -15.2224362925        5.5446993524       -8.0213488046  MEMB      106             0.0000000000
     12250       106  SOPE      H8Y           -14.8013255786        3.8616376396       -8.3489590009  MEMB      106             0.0000000000
     12251       106  SOPE      C39           -16.4339019715        4.1654662902       -7.0962451617  MEMB      106             0.0000000000
     12252       106  SOPE      H9X           -16.7927230388        3.1266103743       -7.2585618365  MEMB      106             0.0000000000
     12253       106  SOPE      H9Y           -17.2129470229        4.9143031595       -6.8380722966  MEMB      106             0.0000000000
     12254       106  SOPE      C310          -15.4772709116        4.1700485594       -5.8324617553  MEMB      106             0.0000000000
     12255       106  SOPE      H10X          -15.2301236420        5.2382461753       -5.6530377205  MEMB      106             0.0000000000
     12256       106  SOPE      H10Y          -14.5435846755        3.5817841161       -5.9608983784  MEMB      106             0.0000000000
     12257       106  SOPE      C311          -16.2299637047        3.6281538068       -4.5697287718  MEMB      106             0.0000000000
     12258       106  SOPE      H11X          -15.4891552394        3.1412264440       -3.9000837000  MEMB      106             0.0000000000
     12259       106  SOPE      H11Y          -17.0110435719        2.8925585655       -4.8580598554  MEMB      106             0.0000000000
     12260       106  SOPE      C312          -17.0000743712        4.7587083311       -3.8353084364  MEMB      106             0.0000000000
     12261       106  SOPE      H12X          -17.6152483084        5.3572647308       -4.5407255269  MEMB      106             0.0000000000
     12262       106  SOPE      H12Y          -16.2824831612        5.3818380067       -3.2599010583  MEMB      106             0.0000000000
     12263       106  SOPE      C313          -17.8911582005        4.1918573711       -2.7075117912  MEMB      106             0.0000000000
     12264       106  SOPE      H13X          -18.5937376483        3.4265423087       -3.1012080136  MEMB      106             0.0000000000
     12265       106  SOPE      H13Y          -18.5762525666        5.0301322967       -2.4579897927  MEMB      106             0.0000000000
     12266       106  SOPE      C314          -17.2674289680        3.4516986024       -1.4601504261  MEMB      106             0.0000000000
     12267       106  SOPE      H14X          -16.8981107947        2.4598965118       -1.7981657463  MEMB      106             0.0000000000
     12268       106  SOPE      H14Y          -18.1052897858        3.4381407729       -0.7306812390  MEMB      106             0.0000000000
     12269       106  SOPE      C315          -16.2501181226        4.3064851397       -0.7552215781  MEMB      106             0.0000000000
     12270       106  SOPE      H15X          -16.4429571777        5.3939750157       -0.8756370470  MEMB      106             0.0000000000
     12271       106  SOPE      H15Y          -15.2136684838        4.1243829423       -1.1114961025  MEMB      106             0.0000000000
     12272       106  SOPE      C316          -16.3437214817        4.1021819774        0.7517521212  MEMB      106             0.0000000000
     12273       106  SOPE      H16X          -16.4214125327        3.0064667223        0.9181644189  MEMB      106             0.0000000000
     12274       106  SOPE      H16Y          -17.3524351696        4.4387570768        1.0735205976  MEMB      106             0.0000000000
     12275       106  SOPE      C317          -15.2046474553        4.6443484277        1.5959934157  MEMB      106             0.0000000000
     12276       106  SOPE      H17X          -14.2384801981        4.3592530716        1.1274193386  MEMB      106             0.0000000000
     12277       106  SOPE      H17Y          -15.2664552176        4.2953940844        2.6489581950  MEMB      106             0.0000000000
     12278       106  SOPE      C318          -15.1600354073        6.2262177214        1.5681156949  MEMB      106             0.0000000000
     12279       106  SOPE      H18X          -14.8419314855        6.5851162464        0.5659562916  MEMB      106             0.0000000000
     12280       106  SOPE      H18Y          -14.3074088485        6.5579592536        2.1984301562  MEMB      106             0.0000000000
     12281       106  SOPE      H18Z          -16.1603231357        6.6636320892        1.7740624926  MEMB      106             0.0000000000
     12282       107  OSM       N               1.6301661723      -13.4946175191      -22.0483547270  MEMB      107             0.0000000000
     12283       107  OSM       C15             1.3803134601      -13.3901165279      -23.5479973188  MEMB      107             0.0000000000
     12284       107  OSM       H15A            0.5165314326      -12.7884719573      -23.7894608185  MEMB      107             0.0000000000
     12285       107  OSM       H15B            0.9872891577      -14.3088968194      -23.9576005173  MEMB      107             0.0000000000
     12286       107  OSM       H15C            2.2240684840      -13.0797621767      -24.1464599812  MEMB      107             0.0000000000
     12287       107  OSM       C14             3.0996177965      -13.8757970799      -21.6679649785  MEMB      107             0.0000000000
     12288       107  OSM       H14A            3.1890073789      -13.7648732904      -20.5974018396  MEMB      107             0.0000000000
     12289       107  OSM       H14B            3.7988632738      -13.1667267329      -22.0859061650  MEMB      107             0.0000000000
     12290       107  OSM       H14C            3.3418322402      -14.8936217122      -21.9358555383  MEMB      107             0.0000000000
     12291       107  OSM       C13             1.3746765849      -12.1380034679      -21.4815538068  MEMB      107             0.0000000000
     12292       107  OSM       H13A            1.9808305714      -11.3350992685      -21.8743924229  MEMB      107             0.0000000000
     12293       107  OSM       H13B            1.5534768835      -12.2101981555      -20.4189069328  MEMB      107             0.0000000000
     12294       107  OSM       H13C            0.3345575645      -11.9230317680      -21.6773590001  MEMB      107             0.0000000000
     12295       107  OSM       C12             0.6552653591      -14.4441490583      -21.4485999259  MEMB      107             0.0000000000
     12296       107  OSM       H12A            0.8228343581      -14.4500995875      -20.3816953952  MEMB      107             0.0000000000
     12297       107  OSM       H12B            0.9676478458      -15.4460405146      -21.7036112837  MEMB      107             0.0000000000
     12298       107  OSM       C11            -0.8281580390      -14.2779537300      -21.7322807008  MEMB      107             0.0000000000
     12299       107  OSM       H11A           -1.4343824455      -15.1387144173      -21.3774509779  MEMB      107             0.0000000000
     12300       107  OSM       H11B           -0.7919591140      -14.2190733899      -22.8411286541  MEMB      107             0.0000000000
     12301       107  OSM       P              -1.7807154573      -12.8215911737      -19.7882207652  MEMB      107             0.0000000000
     12302       107  OSM       O13            -1.9641746574      -11.3764989624      -19.5889678338  MEMB      107             0.0000000000
     12303       107  OSM       O14            -2.9667536841      -13.6514152844      -19.5159958892  MEMB      107             0.0000000000
     12304       107  OSM       O11            -0.5115021420      -13.3287284192      -18.9212506610  MEMB      107             0.0000000000
     12305       107  OSM       O12            -1.3464329929      -13.0394389759      -21.2588133975  MEMB      107             0.0000000000
     12306       107  OSM       C1S            -0.9249623703      -13.6735469551      -17.5830397746  MEMB      107             0.0000000000
     12307       107  OSM       H1S            -1.7846978622      -14.3744053020      -17.6460751673  MEMB      107             0.0000000000
     12308       107  OSM       H1T            -1.3081277151      -12.8106729010      -16.9974173830  MEMB      107             0.0000000000
     12309       107  OSM       NF             -0.2529200911      -14.8781308288      -15.4688395590  MEMB      107             0.0000000000
     12310       107  OSM       HNF             0.4070936951      -14.7209309088      -14.7383059910  MEMB      107             0.0000000000
     12311       107  OSM       C2S             0.2108827113      -14.3371489653      -16.7423790941  MEMB      107             0.0000000000
     12312       107  OSM       H2S             0.6759379554      -15.1379800298      -17.3561495686  MEMB      107             0.0000000000
     12313       107  OSM       C3S             1.3156655449      -13.2472267840      -16.4020071082  MEMB      107             0.0000000000
     12314       107  OSM       H3S             0.8374751211      -12.3361159578      -15.9830417490  MEMB      107             0.0000000000
     12315       107  OSM       O3              1.9412866675      -12.8747519868      -17.6408512051  MEMB      107             0.0000000000
     12316       107  OSM       HO3             1.4555211449      -13.1716111119      -18.4138365894  MEMB      107             0.0000000000
     12317       107  OSM       C4S             2.3720512034      -13.8497947343      -15.4731244454  MEMB      107             0.0000000000
     12318       107  OSM       H4S             2.8215939341      -14.7205829741      -15.9727636772  MEMB      107             0.0000000000
     12319       107  OSM       C5S             2.7314431592      -13.4719254639      -14.2336359216  MEMB      107             0.0000000000
     12320       107  OSM       H5S             2.2253006770      -12.6106480550      -13.7731783514  MEMB      107             0.0000000000
     12321       107  OSM       C6S             3.7979738285      -14.1463799203      -13.4947425101  MEMB      107             0.0000000000
     12322       107  OSM       H6S             4.7733797958      -13.6313447222      -13.6275689241  MEMB      107             0.0000000000
     12323       107  OSM       H6T             4.0405954118      -15.1410883500      -13.9260326275  MEMB      107             0.0000000000
     12324       107  OSM       C7S             3.2479979962      -14.1984452696      -12.0296902908  MEMB      107             0.0000000000
     12325       107  OSM       H7S             2.9311727261      -13.1982454162      -11.6642548095  MEMB      107             0.0000000000
     12326       107  OSM       H7T             4.0702303087      -14.5381485417      -11.3642153422  MEMB      107             0.0000000000
     12327       107  OSM       C8S             2.0928920641      -15.2989355304      -11.9714405800  MEMB      107             0.0000000000
     12328       107  OSM       H8S             2.3842271381      -15.8958511048      -12.8620227242  MEMB      107             0.0000000000
     12329       107  OSM       H8T             1.1699629506      -14.7359266041      -12.2274564151  MEMB      107             0.0000000000
     12330       107  OSM       C9S             2.1940390526      -16.1103395015      -10.6450632378  MEMB      107             0.0000000000
     12331       107  OSM       H9S             3.2668689250      -16.2418894793      -10.3880571866  MEMB      107             0.0000000000
     12332       107  OSM       H9T             1.7437467739      -17.1197137880      -10.7578526960  MEMB      107             0.0000000000
     12333       107  OSM       C10S            1.6287874844      -15.4405169293       -9.3862445390  MEMB      107             0.0000000000
     12334       107  OSM       H10S            0.5207594008      -15.4349674701       -9.4672640283  MEMB      107             0.0000000000
     12335       107  OSM       H10T            2.1183939143      -14.4578962500       -9.2157655672  MEMB      107             0.0000000000
     12336       107  OSM       C11S            1.9598167945      -16.1425499891       -8.0844089521  MEMB      107             0.0000000000
     12337       107  OSM       H11S            3.0623980895      -16.0399713435       -7.9943355812  MEMB      107             0.0000000000
     12338       107  OSM       H11T            1.8005742645      -17.2303403174       -8.2446443015  MEMB      107             0.0000000000
     12339       107  OSM       C12S            1.4219582171      -15.5763670719       -6.7092904741  MEMB      107             0.0000000000
     12340       107  OSM       H12S            1.5396650087      -14.4767310241       -6.8154345842  MEMB      107             0.0000000000
     12341       107  OSM       H12T            2.1265609888      -15.9667217211       -5.9441242375  MEMB      107             0.0000000000
     12342       107  OSM       C13S           -0.0364867947      -16.0632593832       -6.3990555398  MEMB      107             0.0000000000
     12343       107  OSM       H13S           -0.0321749741      -17.1607846503       -6.5715103384  MEMB      107             0.0000000000
     12344       107  OSM       H13T           -0.7709391507      -15.4991113737       -7.0127631899  MEMB      107             0.0000000000
     12345       107  OSM       C14S           -0.4113160112      -15.7785944241       -4.9267469670  MEMB      107             0.0000000000
     12346       107  OSM       H14S           -0.3058144851      -14.6757060243       -4.8441179908  MEMB      107             0.0000000000
     12347       107  OSM       H14T            0.3511002010      -16.3224600694       -4.3290407970  MEMB      107             0.0000000000
     12348       107  OSM       C15S           -1.8102973150      -16.2207207520       -4.6882434977  MEMB      107             0.0000000000
     12349       107  OSM       H15S           -1.9427727299      -17.3237160984       -4.7013866623  MEMB      107             0.0000000000
     12350       107  OSM       H15T           -2.4847384031      -15.7939420137       -5.4611008814  MEMB      107             0.0000000000
     12351       107  OSM       C16S           -2.1989750900      -15.6985139361       -3.2582283402  MEMB      107             0.0000000000
     12352       107  OSM       H16S           -3.2487361566      -15.8526866112       -2.9287533479  MEMB      107             0.0000000000
     12353       107  OSM       H16T           -2.0466879508      -14.5985735845       -3.2937397351  MEMB      107             0.0000000000
     12354       107  OSM       C17S           -1.2668943483      -16.0807797222       -2.0818007375  MEMB      107             0.0000000000
     12355       107  OSM       H17S           -1.4160673097      -15.6270972338       -1.0786859557  MEMB      107             0.0000000000
     12356       107  OSM       H17T           -0.2616097523      -15.7100017596       -2.3754811063  MEMB      107             0.0000000000
     12357       107  OSM       C18S           -1.0175523637      -17.6160354974       -1.9342122439  MEMB      107             0.0000000000
     12358       107  OSM       H18S           -1.9916140322      -18.0259311399       -1.5914149331  MEMB      107             0.0000000000
     12359       107  OSM       H18T           -0.2152792715      -17.9274204377       -1.2315621170  MEMB      107             0.0000000000
     12360       107  OSM       H18U           -0.7426034736      -17.9556911675       -2.9556617648  MEMB      107             0.0000000000
     12361       107  OSM       C1F            -1.2337798658      -15.7099163270      -15.1540475882  MEMB      107             0.0000000000
     12362       107  OSM       OF             -2.0282392406      -16.2231579670      -15.9780629075  MEMB      107             0.0000000000
     12363       107  OSM       C2F            -1.2670717772      -16.1786990267      -13.6986423727  MEMB      107             0.0000000000
     12364       107  OSM       H2F            -0.5441719848      -15.6174875723      -13.0687388179  MEMB      107             0.0000000000
     12365       107  OSM       H2G            -1.1223456418      -17.2772655446      -13.6178555065  MEMB      107             0.0000000000
     12366       107  OSM       C3F            -2.6968650338      -16.0642691382      -13.1415272615  MEMB      107             0.0000000000
     12367       107  OSM       H3F            -2.6758848621      -16.4820730157      -12.1122945112  MEMB      107             0.0000000000
     12368       107  OSM       H3G            -3.4440400990      -16.6987327857      -13.6645057142  MEMB      107             0.0000000000
     12369       107  OSM       C4F            -3.1928772373      -14.6128573810      -13.0732864050  MEMB      107             0.0000000000
     12370       107  OSM       H4F            -4.1550818151      -14.5467534528      -12.5218208378  MEMB      107             0.0000000000
     12371       107  OSM       H4G            -3.3998871848      -14.1645171888      -14.0685043802  MEMB      107             0.0000000000
     12372       107  OSM       C5F            -2.3500078479      -13.5605828932      -12.2408405714  MEMB      107             0.0000000000
     12373       107  OSM       H5F            -2.9694112855      -12.6389190634      -12.2754226273  MEMB      107             0.0000000000
     12374       107  OSM       H5G            -1.3628080680      -13.3288569829      -12.6947800529  MEMB      107             0.0000000000
     12375       107  OSM       C6F            -2.0809307843      -13.9893669661      -10.8065092866  MEMB      107             0.0000000000
     12376       107  OSM       H6F            -0.9961842464      -14.2229815674      -10.7511005065  MEMB      107             0.0000000000
     12377       107  OSM       H6G            -2.4371817853      -14.9758459842      -10.4400863676  MEMB      107             0.0000000000
     12378       107  OSM       C7F            -2.3200065038      -12.9043741640       -9.7511218635  MEMB      107             0.0000000000
     12379       107  OSM       H7F            -2.1196469739      -13.2754909632       -8.7232852570  MEMB      107             0.0000000000
     12380       107  OSM       H7G            -3.4051548335      -12.6667961043       -9.7693134442  MEMB      107             0.0000000000
     12381       107  OSM       C8F            -1.6555423713      -11.5757285022      -10.1041579167  MEMB      107             0.0000000000
     12382       107  OSM       H8F            -2.1333995338      -10.7584929583       -9.5226954247  MEMB      107             0.0000000000
     12383       107  OSM       H8G            -1.6898747813      -11.4267604170      -11.2045901786  MEMB      107             0.0000000000
     12384       107  OSM       C9F            -0.2505840137      -11.6048029309       -9.6661166136  MEMB      107             0.0000000000
     12385       107  OSM       H9F             0.4597958199      -11.9234109458      -10.4431941933  MEMB      107             0.0000000000
     12386       107  OSM       C10F            0.1969204821      -11.4951551317       -8.3817442251  MEMB      107             0.0000000000
     12387       107  OSM       H10F            1.2837664138      -11.4566873911       -8.2165583174  MEMB      107             0.0000000000
     12388       107  OSM       C11F           -0.4979596216      -11.3729073313       -7.0572663786  MEMB      107             0.0000000000
     12389       107  OSM       H11F           -0.0160232572      -12.0413497388       -6.3121199263  MEMB      107             0.0000000000
     12390       107  OSM       H11G           -1.5280772945      -11.7864261526       -7.1039632216  MEMB      107             0.0000000000
     12391       107  OSM       C12F           -0.3687285622       -9.8531243355       -6.6630847569  MEMB      107             0.0000000000
     12392       107  OSM       H12F           -1.2052427928       -9.6930839925       -5.9496759300  MEMB      107             0.0000000000
     12393       107  OSM       H12G           -0.2963414018       -9.1960696972       -7.5560348111  MEMB      107             0.0000000000
     12394       107  OSM       C13F            0.8895908412       -9.5157902144       -5.8070534149  MEMB      107             0.0000000000
     12395       107  OSM       H13F            1.0295790761       -8.4283303907       -5.6277333911  MEMB      107             0.0000000000
     12396       107  OSM       H13G            1.8091657018       -9.8571962909       -6.3287290384  MEMB      107             0.0000000000
     12397       107  OSM       C14F            0.9296509679      -10.2518156577       -4.4530383431  MEMB      107             0.0000000000
     12398       107  OSM       H14F            0.3696164744      -11.2107745026       -4.4201782043  MEMB      107             0.0000000000
     12399       107  OSM       H14G            0.4835169898       -9.5722393565       -3.6957652114  MEMB      107             0.0000000000
     12400       107  OSM       C15F            2.3491621697      -10.3424580717       -3.8861195480  MEMB      107             0.0000000000
     12401       107  OSM       H15F            2.3281853224      -10.3408060593       -2.7753192342  MEMB      107             0.0000000000
     12402       107  OSM       H15G            2.9110061195       -9.3932892753       -4.0192804414  MEMB      107             0.0000000000
     12403       107  OSM       C16F            3.2705130047      -11.4169740876       -4.3853661195  MEMB      107             0.0000000000
     12404       107  OSM       H16F            4.0957111989      -11.5017762370       -3.6463287950  MEMB      107             0.0000000000
     12405       107  OSM       H16G            3.5875002603      -11.1713420226       -5.4214669230  MEMB      107             0.0000000000
     12406       107  OSM       C17F            2.5095147926      -12.7989590992       -4.4041941042  MEMB      107             0.0000000000
     12407       107  OSM       H17F            3.1849748629      -13.6025371235       -4.7679762297  MEMB      107             0.0000000000
     12408       107  OSM       H17G            1.6512251962      -12.6826356156       -5.0999877681  MEMB      107             0.0000000000
     12409       107  OSM       C18F            1.9477119683      -13.2214918402       -3.0971475884  MEMB      107             0.0000000000
     12410       107  OSM       H18F            2.7723283816      -13.1614897774       -2.3550364519  MEMB      107             0.0000000000
     12411       107  OSM       H18G            1.5150863828      -14.2415621465       -3.1784645807  MEMB      107             0.0000000000
     12412       107  OSM       H18H            1.1833029492      -12.5557729068       -2.6423745674  MEMB      107             0.0000000000
     12413       108  SLPC      N              -8.4549991668      -13.5942425520      -17.9131273065  MEMB      108             0.0000000000
     12414       108  SLPC      C13            -8.6772634950      -12.5105162450      -18.8914013821  MEMB      108             0.0000000000
     12415       108  SLPC      H13A           -8.4929278584      -11.5860924400      -18.3642761440  MEMB      108             0.0000000000
     12416       108  SLPC      H13B           -8.0300382828      -12.5400605594      -19.7554769255  MEMB      108             0.0000000000
     12417       108  SLPC      H13C           -9.7124495126      -12.5077597599      -19.1992688418  MEMB      108             0.0000000000
     12418       108  SLPC      C14            -8.3814867122      -14.9938155590      -18.5599816371  MEMB      108             0.0000000000
     12419       108  SLPC      H14A           -7.5483845996      -14.9483176273      -19.2457443877  MEMB      108             0.0000000000
     12420       108  SLPC      H14B           -8.1117862925      -15.7346004595      -17.8218085783  MEMB      108             0.0000000000
     12421       108  SLPC      H14C           -9.2126279802      -15.2256113122      -19.2095008820  MEMB      108             0.0000000000
     12422       108  SLPC      C15            -9.3638931108      -13.6130344545      -16.7248783645  MEMB      108             0.0000000000
     12423       108  SLPC      H15A           -9.5492910956      -12.5871080865      -16.4429160846  MEMB      108             0.0000000000
     12424       108  SLPC      H15B          -10.2847934560      -14.1094273652      -16.9930887555  MEMB      108             0.0000000000
     12425       108  SLPC      H15C           -8.8063035691      -14.1205759049      -15.9516412677  MEMB      108             0.0000000000
     12426       108  SLPC      C12            -6.9964669159      -13.3725449573      -17.4353878394  MEMB      108             0.0000000000
     12427       108  SLPC      H12A           -6.3763876673      -13.4168591001      -18.3185289272  MEMB      108             0.0000000000
     12428       108  SLPC      H12B           -6.6321679187      -14.2274612584      -16.8851110090  MEMB      108             0.0000000000
     12429       108  SLPC      C11            -6.7136670976      -12.1208284340      -16.5459711085  MEMB      108             0.0000000000
     12430       108  SLPC      H11A           -5.6221405038      -12.1296715153      -16.3390589222  MEMB      108             0.0000000000
     12431       108  SLPC      H11B           -7.1386540428      -12.1818692623      -15.5212852498  MEMB      108             0.0000000000
     12432       108  SLPC      P              -7.5690918197       -9.6750060256      -16.2308046013  MEMB      108             0.0000000000
     12433       108  SLPC      O13            -7.2974563783       -8.3843494724      -16.8625516782  MEMB      108             0.0000000000
     12434       108  SLPC      O14            -8.9808439002       -9.8358219116      -15.8091593313  MEMB      108             0.0000000000
     12435       108  SLPC      O12            -7.0582040243      -10.8509928820      -17.0627128552  MEMB      108             0.0000000000
     12436       108  SLPC      O11            -6.6119954108       -9.8149201046      -14.9640238908  MEMB      108             0.0000000000
     12437       108  SLPC      C1             -5.2418644687       -9.5436311168      -14.9872365835  MEMB      108             0.0000000000
     12438       108  SLPC      HA             -4.6921701907      -10.3651832785      -15.4943945026  MEMB      108             0.0000000000
     12439       108  SLPC      HB             -5.0520518975       -8.5578386626      -15.4631623953  MEMB      108             0.0000000000
     12440       108  SLPC      C2             -4.7574167088       -9.4387244019      -13.4988817180  MEMB      108             0.0000000000
     12441       108  SLPC      HS             -3.6487271503       -9.4686068612      -13.5639625045  MEMB      108             0.0000000000
     12442       108  SLPC      O21            -5.2022090127      -10.5255460389      -12.6879338358  MEMB      108             0.0000000000
     12443       108  SLPC      C21            -4.6046166761      -11.6714855013      -12.9512813914  MEMB      108             0.0000000000
     12444       108  SLPC      O22            -3.5158556477      -11.8462790417      -13.5164968792  MEMB      108             0.0000000000
     12445       108  SLPC      C22            -5.4986051109      -12.8029275564      -12.5148260137  MEMB      108             0.0000000000
     12446       108  SLPC      H2R            -6.2838826313      -12.4448996058      -11.8152001937  MEMB      108             0.0000000000
     12447       108  SLPC      H2S            -6.0598807437      -13.1790244386      -13.3967791715  MEMB      108             0.0000000000
     12448       108  SLPC      C3             -5.3290574837       -8.2233737151      -12.7027878400  MEMB      108             0.0000000000
     12449       108  SLPC      HX             -4.9585142431       -7.2868913952      -13.1718500153  MEMB      108             0.0000000000
     12450       108  SLPC      HY             -4.9487743465       -8.2708770812      -11.6599792433  MEMB      108             0.0000000000
     12451       108  SLPC      O31            -6.7927466761       -8.2551383276      -12.7019241293  MEMB      108             0.0000000000
     12452       108  SLPC      C31            -7.3327006027       -7.0161354782      -12.4716225852  MEMB      108             0.0000000000
     12453       108  SLPC      O32            -6.6806041175       -6.0051126820      -12.4255010465  MEMB      108             0.0000000000
     12454       108  SLPC      C32            -8.8154153257       -7.1300796458      -12.2086124977  MEMB      108             0.0000000000
     12455       108  SLPC      H2X            -9.2711687513       -7.9868372377      -12.7495159124  MEMB      108             0.0000000000
     12456       108  SLPC      H2Y            -9.2665397242       -6.2886014196      -12.7766991109  MEMB      108             0.0000000000
     12457       108  SLPC      C23            -4.6950842017      -13.9211837463      -11.7983456987  MEMB      108             0.0000000000
     12458       108  SLPC      H3R            -4.0938417839      -14.3472418851      -12.6297921038  MEMB      108             0.0000000000
     12459       108  SLPC      H3S            -5.4778407516      -14.5931138788      -11.3858857877  MEMB      108             0.0000000000
     12460       108  SLPC      C24            -3.7897262849      -13.3894921942      -10.6867829412  MEMB      108             0.0000000000
     12461       108  SLPC      H4R            -3.1291135133      -12.6156005989      -11.1328809147  MEMB      108             0.0000000000
     12462       108  SLPC      H4S            -3.1407723358      -14.2093355060      -10.3112338087  MEMB      108             0.0000000000
     12463       108  SLPC      C25            -4.6686784524      -12.8151835093       -9.5492493609  MEMB      108             0.0000000000
     12464       108  SLPC      H5R            -5.3921666588      -13.5811573754       -9.1968718691  MEMB      108             0.0000000000
     12465       108  SLPC      H5S            -5.2305690735      -11.8932876572       -9.8113712213  MEMB      108             0.0000000000
     12466       108  SLPC      C26            -3.7633046270      -12.3753176390       -8.3295723819  MEMB      108             0.0000000000
     12467       108  SLPC      H6R            -3.0239127437      -11.5904277903       -8.5970950994  MEMB      108             0.0000000000
     12468       108  SLPC      H6S            -3.2036050492      -13.2368449702       -7.9066907951  MEMB      108             0.0000000000
     12469       108  SLPC      C27            -4.6133698583      -11.6212109803       -7.2349571262  MEMB      108             0.0000000000
     12470       108  SLPC      H7R            -3.8474987174      -11.2721950748       -6.5097323414  MEMB      108             0.0000000000
     12471       108  SLPC      H7S            -5.2589278872      -12.3540767479       -6.7053501199  MEMB      108             0.0000000000
     12472       108  SLPC      C28            -5.5717616905      -10.4686197865       -7.6387118911  MEMB      108             0.0000000000
     12473       108  SLPC      H8R            -6.0277545738      -10.1489526220       -6.6773570915  MEMB      108             0.0000000000
     12474       108  SLPC      H8S            -6.4178623702      -10.9296185384       -8.1918074692  MEMB      108             0.0000000000
     12475       108  SLPC      C29            -4.9268831600       -9.4437504080       -8.5170797200  MEMB      108             0.0000000000
     12476       108  SLPC      H9R            -4.2761604216       -9.7731124387       -9.3405360304  MEMB      108             0.0000000000
     12477       108  SLPC      C210           -5.1334063628       -8.1373088111       -8.4068186860  MEMB      108             0.0000000000
     12478       108  SLPC      H10R           -4.7161033327       -7.5220867174       -9.2175965174  MEMB      108             0.0000000000
     12479       108  SLPC      C211           -5.9894746699       -7.4907611536       -7.3700302132  MEMB      108             0.0000000000
     12480       108  SLPC      H11R           -6.5107771022       -8.2642226696       -6.7664392212  MEMB      108             0.0000000000
     12481       108  SLPC      H11S           -6.7372133898       -6.8167030474       -7.8399803554  MEMB      108             0.0000000000
     12482       108  SLPC      C212           -5.1394903605       -6.6650255121       -6.3960618370  MEMB      108             0.0000000000
     12483       108  SLPC      H12R           -5.1905678492       -5.5747422705       -6.5327112717  MEMB      108             0.0000000000
     12484       108  SLPC      C213           -4.3170702462       -6.9959306200       -5.3490378577  MEMB      108             0.0000000000
     12485       108  SLPC      H13R           -3.8108830634       -6.2130233687       -4.7652306293  MEMB      108             0.0000000000
     12486       108  SLPC      C214           -4.1178862833       -8.4929885250       -4.9941075003  MEMB      108             0.0000000000
     12487       108  SLPC      H14R           -3.1540658663       -8.8482986680       -5.4173403706  MEMB      108             0.0000000000
     12488       108  SLPC      H14S           -4.9530319654       -9.1512109596       -5.3159702962  MEMB      108             0.0000000000
     12489       108  SLPC      C215           -3.9157237185       -8.7399002176       -3.4729173546  MEMB      108             0.0000000000
     12490       108  SLPC      H15R           -3.9611403064       -9.8253083952       -3.2402210755  MEMB      108             0.0000000000
     12491       108  SLPC      H15S           -4.7625192317       -8.3735165313       -2.8540300690  MEMB      108             0.0000000000
     12492       108  SLPC      C216           -2.6385259182       -8.1364673153       -2.9046265561  MEMB      108             0.0000000000
     12493       108  SLPC      H16R           -2.8374468287       -7.0465553644       -2.9873472685  MEMB      108             0.0000000000
     12494       108  SLPC      H16S           -1.7112114597       -8.3650540015       -3.4722153014  MEMB      108             0.0000000000
     12495       108  SLPC      C217           -2.4403326414       -8.5634746585       -1.4617150301  MEMB      108             0.0000000000
     12496       108  SLPC      H17R           -3.3802341562       -8.8941337463       -0.9702169894  MEMB      108             0.0000000000
     12497       108  SLPC      H17S           -2.1822676327       -7.7065172620       -0.8034231005  MEMB      108             0.0000000000
     12498       108  SLPC      C218           -1.4338650432       -9.6977636965       -1.0682862637  MEMB      108             0.0000000000
     12499       108  SLPC      H18R           -0.4342951073       -9.3255277294       -1.3791257959  MEMB      108             0.0000000000
     12500       108  SLPC      H18S           -1.7165447613      -10.5518711832       -1.7201403440  MEMB      108             0.0000000000
     12501       108  SLPC      H18T           -1.5849313343       -9.9195533223        0.0098180851  MEMB      108             0.0000000000
     12502       108  SLPC      C33            -8.9073508072       -7.0451833773      -10.6857491399  MEMB      108             0.0000000000
     12503       108  SLPC      H3X            -9.9486681014       -6.8697342898      -10.3404993569  MEMB      108             0.0000000000
     12504       108  SLPC      H3Y            -8.3046490936       -6.1908594951      -10.3099807056  MEMB      108             0.0000000000
     12505       108  SLPC      C34            -8.4666419588       -8.3504938606       -9.9498705894  MEMB      108             0.0000000000
     12506       108  SLPC      H4X            -8.5957890145       -8.1296860517       -8.8687202279  MEMB      108             0.0000000000
     12507       108  SLPC      H4Y            -7.3706085499       -8.3578346988      -10.1314687933  MEMB      108             0.0000000000
     12508       108  SLPC      C35            -9.3520519221       -9.5123058824      -10.4198037297  MEMB      108             0.0000000000
     12509       108  SLPC      H5X            -9.1036682427       -9.9087140465      -11.4275172529  MEMB      108             0.0000000000
     12510       108  SLPC      H5Y           -10.3956193792       -9.1368961454      -10.4857979130  MEMB      108             0.0000000000
     12511       108  SLPC      C36            -9.2791617681      -10.6606188410       -9.4020357732  MEMB      108             0.0000000000
     12512       108  SLPC      H6X            -8.2010888458      -10.9274068311       -9.3719758670  MEMB      108             0.0000000000
     12513       108  SLPC      H6Y            -9.7359725418      -11.5128585336       -9.9491487148  MEMB      108             0.0000000000
     12514       108  SLPC      C37            -9.6821193514      -10.4028874659       -7.9514281634  MEMB      108             0.0000000000
     12515       108  SLPC      H7X           -10.6882648072       -9.9539278935       -7.8085040607  MEMB      108             0.0000000000
     12516       108  SLPC      H7Y            -9.0176015613       -9.6218890322       -7.5239024271  MEMB      108             0.0000000000
     12517       108  SLPC      C38            -9.5943771653      -11.6085435218       -7.0979847357  MEMB      108             0.0000000000
     12518       108  SLPC      H8X            -9.1687375645      -11.3501647669       -6.1048116157  MEMB      108             0.0000000000
     12519       108  SLPC      H8Y            -8.9074421711      -12.3541754175       -7.5523792250  MEMB      108             0.0000000000
     12520       108  SLPC      C39           -10.9592946930      -12.2220562034       -6.8619277358  MEMB      108             0.0000000000
     12521       108  SLPC      H9X           -11.5752370520      -12.4066755907       -7.7679360756  MEMB      108             0.0000000000
     12522       108  SLPC      H9Y           -11.3540667122      -11.3621655191       -6.2796364749  MEMB      108             0.0000000000
     12523       108  SLPC      C310          -11.0275469511      -13.4048144926       -5.9201835305  MEMB      108             0.0000000000
     12524       108  SLPC      H10X          -11.1399829272      -14.3902942993       -6.4206917791  MEMB      108             0.0000000000
     12525       108  SLPC      H10Y          -11.9399081125      -13.2906101755       -5.2965843438  MEMB      108             0.0000000000
     12526       108  SLPC      C311           -9.8616043779      -13.3753596330       -4.8493123795  MEMB      108             0.0000000000
     12527       108  SLPC      H11X           -9.9382175304      -12.3138347829       -4.5305380338  MEMB      108             0.0000000000
     12528       108  SLPC      H11Y           -8.7948127695      -13.4558071847       -5.1489867686  MEMB      108             0.0000000000
     12529       108  SLPC      C312          -10.1019442518      -14.0614309985       -3.5579947423  MEMB      108             0.0000000000
     12530       108  SLPC      H12X          -10.3485430202      -15.1330691925       -3.7164308651  MEMB      108             0.0000000000
     12531       108  SLPC      H12Y          -11.0029712163      -13.5549391613       -3.1506405071  MEMB      108             0.0000000000
     12532       108  SLPC      C313           -8.9555768525      -13.8214777809       -2.5178018372  MEMB      108             0.0000000000
     12533       108  SLPC      H13X           -7.9615572952      -14.1278756958       -2.9081429818  MEMB      108             0.0000000000
     12534       108  SLPC      H13Y           -9.2351304363      -14.4766030201       -1.6651692283  MEMB      108             0.0000000000
     12535       108  SLPC      C314           -8.8547986757      -12.3529400362       -2.0253981697  MEMB      108             0.0000000000
     12536       108  SLPC      H14X           -9.8161224061      -12.2932183294       -1.4716738447  MEMB      108             0.0000000000
     12537       108  SLPC      H14Y           -8.9064776201      -11.6025451672       -2.8430521442  MEMB      108             0.0000000000
     12538       108  SLPC      C315           -7.6107321340      -12.0258642457       -1.2201127145  MEMB      108             0.0000000000
     12539       108  SLPC      H15X           -7.8256562257      -11.0259662709       -0.7861397935  MEMB      108             0.0000000000
     12540       108  SLPC      H15Y           -6.7501482191      -11.8892954255       -1.9093628585  MEMB      108             0.0000000000
     12541       108  SLPC      C316           -7.1275687987      -13.1074696441       -0.2004207500  MEMB      108             0.0000000000
     12542       108  SLPC      H16X           -6.9743205943      -14.0836945591       -0.7081806092  MEMB      108             0.0000000000
     12543       108  SLPC      H16Y           -7.9254414306      -13.2866651959        0.5516483636  MEMB      108             0.0000000000
     12544       108  SLPC      C317           -5.8812083567      -12.7742384901        0.6050106884  MEMB      108             0.0000000000
     12545       108  SLPC      H17X           -6.2076317338      -11.8532777946        1.1337839794  MEMB      108             0.0000000000
     12546       108  SLPC      H17Y           -5.1481673713      -12.5197795299       -0.1901136171  MEMB      108             0.0000000000
     12547       108  SLPC      C318           -5.3339946437      -13.8767273387        1.5831124017  MEMB      108             0.0000000000
     12548       108  SLPC      H18X           -4.6089448163      -14.5708414609        1.1068461947  MEMB      108             0.0000000000
     12549       108  SLPC      H18Y           -6.1900017646      -14.3591503048        2.1016098388  MEMB      108             0.0000000000
     12550       108  SLPC      H18Z           -4.7104952028      -13.2955348927        2.2957017055  MEMB      108             0.0000000000
     12551       109  SAPC      N              12.1606149561      -10.6867671472      -21.0698068308  MEMB      109             0.0000000000
     12552       109  SAPC      C12            12.8928285266       -9.4251833904      -21.6089914324  MEMB      109             0.0000000000
     12553       109  SAPC      H12A           12.7290312208       -9.4552810531      -22.6760736282  MEMB      109             0.0000000000
     12554       109  SAPC      H12B           13.9204069562       -9.4864383725      -21.2822953573  MEMB      109             0.0000000000
     12555       109  SAPC      C13            12.4473645098      -10.7399729543      -19.5887626648  MEMB      109             0.0000000000
     12556       109  SAPC      H13A           11.9715001765       -9.8776033625      -19.1457367877  MEMB      109             0.0000000000
     12557       109  SAPC      H13B           11.9466025891      -11.5479772272      -19.0761552271  MEMB      109             0.0000000000
     12558       109  SAPC      H13C           13.4986879018      -10.6930078089      -19.3460415842  MEMB      109             0.0000000000
     12559       109  SAPC      C14            10.7150150709      -10.5785875277      -21.3333938503  MEMB      109             0.0000000000
     12560       109  SAPC      H14A           10.3999858393      -11.3374405440      -20.6324669857  MEMB      109             0.0000000000
     12561       109  SAPC      H14B           10.3200113975       -9.6204682261      -21.0294537058  MEMB      109             0.0000000000
     12562       109  SAPC      H14C           10.5801986684      -10.8124148835      -22.3791230056  MEMB      109             0.0000000000
     12563       109  SAPC      C15            12.6626539137      -11.9234966102      -21.7679763211  MEMB      109             0.0000000000
     12564       109  SAPC      H15A           12.3786466370      -12.8299381919      -21.2540663569  MEMB      109             0.0000000000
     12565       109  SAPC      H15B           12.2867354287      -11.7698480077      -22.7687147391  MEMB      109             0.0000000000
     12566       109  SAPC      H15C           13.7303767591      -11.8222541796      -21.8949334710  MEMB      109             0.0000000000
     12567       109  SAPC      C11            12.4113580773       -8.0014471516      -21.0649290659  MEMB      109             0.0000000000
     12568       109  SAPC      H11A           11.4027787463       -7.8108448386      -21.4900873068  MEMB      109             0.0000000000
     12569       109  SAPC      H11B           13.1636859809       -7.2949880643      -21.4763159721  MEMB      109             0.0000000000
     12570       109  SAPC      P              13.3418383252       -7.4135280318      -18.6392538863  MEMB      109             0.0000000000
     12571       109  SAPC      O13            13.5082666332       -5.9228246197      -18.7659211028  MEMB      109             0.0000000000
     12572       109  SAPC      O14            13.0169040090       -7.9530930962      -17.2967280101  MEMB      109             0.0000000000
     12573       109  SAPC      O12            12.2297604645       -7.9305740728      -19.6868949327  MEMB      109             0.0000000000
     12574       109  SAPC      O11            14.6482421195       -8.2098926270      -19.1773419299  MEMB      109             0.0000000000
     12575       109  SAPC      C1             15.7334274799       -7.6242779207      -19.7437576700  MEMB      109             0.0000000000
     12576       109  SAPC      HA             16.0847328904       -8.3503991869      -20.5077297176  MEMB      109             0.0000000000
     12577       109  SAPC      HB             15.4649335561       -6.6520085439      -20.2095090723  MEMB      109             0.0000000000
     12578       109  SAPC      C2             17.0352024070       -7.3794792011      -18.8711464167  MEMB      109             0.0000000000
     12579       109  SAPC      HS             17.9698154918       -7.3958377083      -19.4716058557  MEMB      109             0.0000000000
     12580       109  SAPC      O21            17.0463360281       -8.3926344602      -17.8822972451  MEMB      109             0.0000000000
     12581       109  SAPC      C21            17.1084164437       -9.7328383264      -18.1415690832  MEMB      109             0.0000000000
     12582       109  SAPC      O22            17.3307320203      -10.2347051436      -19.1918958194  MEMB      109             0.0000000000
     12583       109  SAPC      C22            16.9507783668      -10.5078842345      -16.8433779462  MEMB      109             0.0000000000
     12584       109  SAPC      H2R            17.1836174767      -11.5690155061      -17.0759881343  MEMB      109             0.0000000000
     12585       109  SAPC      H2S            17.6352018773      -10.2053497007      -16.0221849538  MEMB      109             0.0000000000
     12586       109  SAPC      C3             17.0206317186       -6.0157682125      -18.1259718530  MEMB      109             0.0000000000
     12587       109  SAPC      HX             16.7523540086       -5.1695165982      -18.7939585303  MEMB      109             0.0000000000
     12588       109  SAPC      HY             18.0832317795       -5.9032627786      -17.8217602836  MEMB      109             0.0000000000
     12589       109  SAPC      O31            16.2587445733       -6.0814853856      -16.9116370936  MEMB      109             0.0000000000
     12590       109  SAPC      C31            16.0855453221       -4.9481640656      -16.2430259525  MEMB      109             0.0000000000
     12591       109  SAPC      O32            16.4224593963       -3.8168169516      -16.5248535751  MEMB      109             0.0000000000
     12592       109  SAPC      C32            15.1769722129       -5.3367390459      -15.0521090995  MEMB      109             0.0000000000
     12593       109  SAPC      H2X            15.7648771776       -5.9637474102      -14.3481566361  MEMB      109             0.0000000000
     12594       109  SAPC      H2Y            14.2756998460       -5.8738544276      -15.4175356545  MEMB      109             0.0000000000
     12595       109  SAPC      C23            15.5090818312      -10.4136161377      -16.4114005083  MEMB      109             0.0000000000
     12596       109  SAPC      H3R            14.7582006539      -10.0988374086      -17.1673189197  MEMB      109             0.0000000000
     12597       109  SAPC      H3S            15.5227238797       -9.5423633956      -15.7221591813  MEMB      109             0.0000000000
     12598       109  SAPC      C24            14.9820900381      -11.6050321280      -15.6447340921  MEMB      109             0.0000000000
     12599       109  SAPC      H4R            14.9800106977      -12.3591165064      -16.4606218549  MEMB      109             0.0000000000
     12600       109  SAPC      H4S            13.8921796338      -11.4408248027      -15.5052624124  MEMB      109             0.0000000000
     12601       109  SAPC      C25            15.7966582101      -12.0589408538      -14.3589273764  MEMB      109             0.0000000000
     12602       109  SAPC      H5R            16.0245693710      -13.1278080540      -14.4837446161  MEMB      109             0.0000000000
     12603       109  SAPC      C26            16.0783976293      -11.3364157997      -13.2931909987  MEMB      109             0.0000000000
     12604       109  SAPC      H6R            16.7438557328      -11.8835651161      -12.6092372480  MEMB      109             0.0000000000
     12605       109  SAPC      C27            15.7456576866       -9.8820034823      -12.8675295976  MEMB      109             0.0000000000
     12606       109  SAPC      H7R            16.2685695479       -9.0895413855      -13.4444940732  MEMB      109             0.0000000000
     12607       109  SAPC      H7S            16.1059458874       -9.9586465158      -11.8193695158  MEMB      109             0.0000000000
     12608       109  SAPC      C28            14.2594665737       -9.5479432926      -12.7466923703  MEMB      109             0.0000000000
     12609       109  SAPC      H8R            13.9045327324       -8.8370032953      -13.5073412229  MEMB      109             0.0000000000
     12610       109  SAPC      C29            13.3167227114       -9.9284623096      -11.8112424989  MEMB      109             0.0000000000
     12611       109  SAPC      H9R            12.2857066870       -9.5527650286      -11.8877774372  MEMB      109             0.0000000000
     12612       109  SAPC      C210           13.4985754109      -10.7860693436      -10.5870492645  MEMB      109             0.0000000000
     12613       109  SAPC      H10R           14.5880257934      -10.7707311204      -10.3698316667  MEMB      109             0.0000000000
     12614       109  SAPC      H10S           13.1569970543      -11.7632343379      -10.9905259554  MEMB      109             0.0000000000
     12615       109  SAPC      C211           12.8027898525      -10.4743443458       -9.2370206639  MEMB      109             0.0000000000
     12616       109  SAPC      H11R           11.7861969446      -10.1065582740       -9.4401765058  MEMB      109             0.0000000000
     12617       109  SAPC      C212           13.2880255446      -10.4945958335       -7.9961670858  MEMB      109             0.0000000000
     12618       109  SAPC      H12R           12.5478603918      -10.2902170387       -7.2085217863  MEMB      109             0.0000000000
     12619       109  SAPC      C213           14.7264711960      -10.8255683831       -7.6131191593  MEMB      109             0.0000000000
     12620       109  SAPC      H13R           15.2825638187       -9.9203706230       -7.2880055687  MEMB      109             0.0000000000
     12621       109  SAPC      H13S           15.3144403388      -11.1943619997       -8.4806475966  MEMB      109             0.0000000000
     12622       109  SAPC      C214           14.8517969835      -11.8443472518       -6.5309071223  MEMB      109             0.0000000000
     12623       109  SAPC      H14R           14.7723427474      -12.9031050129       -6.8185169069  MEMB      109             0.0000000000
     12624       109  SAPC      C215           15.2326599507      -11.6815610195       -5.2998355791  MEMB      109             0.0000000000
     12625       109  SAPC      H15R           15.3070396129      -12.6070980195       -4.7100494513  MEMB      109             0.0000000000
     12626       109  SAPC      C216           15.6784961623      -10.3580858764       -4.7032248160  MEMB      109             0.0000000000
     12627       109  SAPC      H16R           15.6138839614      -10.3033743801       -3.5954548542  MEMB      109             0.0000000000
     12628       109  SAPC      H16S           15.0056608926       -9.5661819249       -5.0962916428  MEMB      109             0.0000000000
     12629       109  SAPC      C217           17.1189758596      -10.0601115600       -5.1923849724  MEMB      109             0.0000000000
     12630       109  SAPC      H17R           17.1098382076       -8.9507595925       -5.1325873399  MEMB      109             0.0000000000
     12631       109  SAPC      H17S           17.3084987347      -10.4070507134       -6.2306697735  MEMB      109             0.0000000000
     12632       109  SAPC      C218           18.1793268408      -10.7353426517       -4.3253622449  MEMB      109             0.0000000000
     12633       109  SAPC      H18R           19.1483072410      -10.5468672552       -4.8351419452  MEMB      109             0.0000000000
     12634       109  SAPC      H18S           17.9256261503      -11.8082868368       -4.4622838343  MEMB      109             0.0000000000
     12635       109  SAPC      C219           18.1933460665      -10.2209139705       -2.8063820259  MEMB      109             0.0000000000
     12636       109  SAPC      H19R           17.3628936137      -10.7332506866       -2.2751743597  MEMB      109             0.0000000000
     12637       109  SAPC      H19S           17.8942348132       -9.1509983201       -2.8179545054  MEMB      109             0.0000000000
     12638       109  SAPC      C220           19.4825099828      -10.4317435560       -2.0339486348  MEMB      109             0.0000000000
     12639       109  SAPC      H20R           20.3303686070       -9.7741373317       -2.3220648210  MEMB      109             0.0000000000
     12640       109  SAPC      H20S           19.8679538252      -11.4631501161       -2.1821203790  MEMB      109             0.0000000000
     12641       109  SAPC      H20T           19.2323563506      -10.3475438168       -0.9547579011  MEMB      109             0.0000000000
     12642       109  SAPC      C33            14.6626552430       -4.1787258327      -14.1913102131  MEMB      109             0.0000000000
     12643       109  SAPC      H3X            14.4620162917       -3.2431595451      -14.7559167395  MEMB      109             0.0000000000
     12644       109  SAPC      H3Y            15.2999907458       -3.8804929149      -13.3315533241  MEMB      109             0.0000000000
     12645       109  SAPC      C34            13.3596901471       -4.5430890507      -13.5490438456  MEMB      109             0.0000000000
     12646       109  SAPC      H4X            12.6379012561       -4.8683460998      -14.3284988530  MEMB      109             0.0000000000
     12647       109  SAPC      H4Y            12.9933374495       -3.5699984896      -13.1576341524  MEMB      109             0.0000000000
     12648       109  SAPC      C35            13.4553144033       -5.5315594693      -12.3490035634  MEMB      109             0.0000000000
     12649       109  SAPC      H5X            13.9903323159       -6.4776789502      -12.5790794877  MEMB      109             0.0000000000
     12650       109  SAPC      H5Y            12.4553384114       -5.8151436871      -11.9566398992  MEMB      109             0.0000000000
     12651       109  SAPC      C36            14.1223307139       -4.8955628778      -11.1223424339  MEMB      109             0.0000000000
     12652       109  SAPC      H6X            13.5036924581       -4.0408862470      -10.7742971618  MEMB      109             0.0000000000
     12653       109  SAPC      H6Y            15.1659949733       -4.6117070348      -11.3763336161  MEMB      109             0.0000000000
     12654       109  SAPC      C37            14.2161146657       -5.9228274771       -9.9428405809  MEMB      109             0.0000000000
     12655       109  SAPC      H7X            14.8899046601       -6.7941008092      -10.0884799521  MEMB      109             0.0000000000
     12656       109  SAPC      H7Y            13.2154390293       -6.3965632094       -9.8504081747  MEMB      109             0.0000000000
     12657       109  SAPC      C38            14.6915990784       -5.1331753043       -8.6627908708  MEMB      109             0.0000000000
     12658       109  SAPC      H8X            13.9912572372       -4.2707337141       -8.6567175922  MEMB      109             0.0000000000
     12659       109  SAPC      H8Y            15.6591497329       -4.5993924683       -8.7778691066  MEMB      109             0.0000000000
     12660       109  SAPC      C39            14.5695957306       -5.8926201230       -7.2952130147  MEMB      109             0.0000000000
     12661       109  SAPC      H9X            14.9354193849       -6.9387380869       -7.3735156675  MEMB      109             0.0000000000
     12662       109  SAPC      H9Y            13.4918117527       -5.9972337457       -7.0467003991  MEMB      109             0.0000000000
     12663       109  SAPC      C310           15.2560086251       -5.2109334773       -6.0586075109  MEMB      109             0.0000000000
     12664       109  SAPC      H10X           16.3116669196       -5.1960992360       -6.4045649991  MEMB      109             0.0000000000
     12665       109  SAPC      H10Y           15.2326898462       -5.9668740868       -5.2447709496  MEMB      109             0.0000000000
     12666       109  SAPC      C311           14.7799997356       -3.8393394733       -5.8268153421  MEMB      109             0.0000000000
     12667       109  SAPC      H11X           14.4323371999       -3.2817111362       -6.7226399829  MEMB      109             0.0000000000
     12668       109  SAPC      H11Y           15.5845186786       -3.2126489958       -5.3859869203  MEMB      109             0.0000000000
     12669       109  SAPC      C312           13.5950849644       -3.7619649947       -4.8261209513  MEMB      109             0.0000000000
     12670       109  SAPC      H12X           12.7048066096       -4.2022021441       -5.3240332276  MEMB      109             0.0000000000
     12671       109  SAPC      H12Y           13.4196666860       -2.6971442183       -4.5621020151  MEMB      109             0.0000000000
     12672       109  SAPC      C313           13.9319880907       -4.4448586115       -3.4926190200  MEMB      109             0.0000000000
     12673       109  SAPC      H13X           14.6607695068       -3.7848680475       -2.9753071797  MEMB      109             0.0000000000
     12674       109  SAPC      H13Y           14.3385079260       -5.4770692101       -3.5526522224  MEMB      109             0.0000000000
     12675       109  SAPC      C314           12.5430241346       -4.5459026242       -2.7044569746  MEMB      109             0.0000000000
     12676       109  SAPC      H14X           12.0317301099       -5.3235713179       -3.3111951924  MEMB      109             0.0000000000
     12677       109  SAPC      H14Y           11.9675426395       -3.6114980324       -2.8777520309  MEMB      109             0.0000000000
     12678       109  SAPC      C315           12.6172287063       -4.9266953635       -1.1769718214  MEMB      109             0.0000000000
     12679       109  SAPC      H15X           11.5701854837       -4.8338442610       -0.8172489651  MEMB      109             0.0000000000
     12680       109  SAPC      H15Y           13.1540580453       -4.1751499801       -0.5594652574  MEMB      109             0.0000000000
     12681       109  SAPC      C316           13.1010900421       -6.3692915759       -1.0214353530  MEMB      109             0.0000000000
     12682       109  SAPC      H16X           13.3334791727       -6.4419319615        0.0625566009  MEMB      109             0.0000000000
     12683       109  SAPC      H16Y           14.0005578260       -6.3923946523       -1.6731603099  MEMB      109             0.0000000000
     12684       109  SAPC      C317           12.1016442028       -7.4600597435       -1.3129195313  MEMB      109             0.0000000000
     12685       109  SAPC      H17X           11.7602509230       -7.3787154553       -2.3670336234  MEMB      109             0.0000000000
     12686       109  SAPC      H17Y           11.2733002819       -7.5058638387       -0.5739552690  MEMB      109             0.0000000000
     12687       109  SAPC      C318           12.8656670383       -8.8397382334       -1.3594938619  MEMB      109             0.0000000000
     12688       109  SAPC      H18X           13.5424478310       -9.0224227235       -0.4975682809  MEMB      109             0.0000000000
     12689       109  SAPC      H18Y           13.5999470603       -8.7983607069       -2.1922257502  MEMB      109             0.0000000000
     12690       109  SAPC      H18Z           12.1104458899       -9.6339585251       -1.5416382420  MEMB      109             0.0000000000
     12691       110  CHL1      C3              5.2346751613       14.7410578305      -17.2879700000  MEMB      110             0.0000000000
     12692       110  CHL1      H3              5.0298803235       15.7588230704      -16.8923300000  MEMB      110             0.0000000000
     12693       110  CHL1      O3              5.1401844587       14.6644625695      -18.7120300000  MEMB      110             0.0000000000
     12694       110  CHL1      H3'             4.3024450172       15.0906554908      -18.9073700000  MEMB      110             0.0000000000
     12695       110  CHL1      C4              6.7066085641       14.3105628269      -16.8585300000  MEMB      110             0.0000000000
     12696       110  CHL1      H4A             6.7107752581       13.3039766165      -17.3287400000  MEMB      110             0.0000000000
     12697       110  CHL1      H4B             7.3984502931       14.9835567146      -17.4087700000  MEMB      110             0.0000000000
     12698       110  CHL1      C5              6.8347897083       14.3294758484      -15.3808900000  MEMB      110             0.0000000000
     12699       110  CHL1      C6              7.7751846524       15.0610503493      -14.7509900000  MEMB      110             0.0000000000
     12700       110  CHL1      H6              8.4436048235       15.7196662009      -15.3249500000  MEMB      110             0.0000000000
     12701       110  CHL1      C7              7.9384931088       15.0158200787      -13.2636300000  MEMB      110             0.0000000000
     12702       110  CHL1      H7A             9.0202002769       14.9829144244      -13.0123600000  MEMB      110             0.0000000000
     12703       110  CHL1      H7B             7.5773705324       15.9539898924      -12.7906100000  MEMB      110             0.0000000000
     12704       110  CHL1      C8              7.0742749931       13.9910452865      -12.5475700000  MEMB      110             0.0000000000
     12705       110  CHL1      H8              7.5662440896       13.0134870512      -12.7390600000  MEMB      110             0.0000000000
     12706       110  CHL1      C14             7.0851974884       14.4113723786      -11.0861800000  MEMB      110             0.0000000000
     12707       110  CHL1      H14             6.7267337876       15.4629108939      -11.0753600000  MEMB      110             0.0000000000
     12708       110  CHL1      C15             8.3659427948       14.4256644924      -10.3788800000  MEMB      110             0.0000000000
     12709       110  CHL1      H15A            8.7708146482       13.3935467774      -10.4505800000  MEMB      110             0.0000000000
     12710       110  CHL1      H15B            9.0689205012       15.1203571752      -10.8863800000  MEMB      110             0.0000000000
     12711       110  CHL1      C16             8.0113758800       14.8675275915       -8.9372200000  MEMB      110             0.0000000000
     12712       110  CHL1      H16A            8.4548280172       14.1941788681       -8.1728300000  MEMB      110             0.0000000000
     12713       110  CHL1      H16B            8.2698822900       15.9456716120       -8.8658000000  MEMB      110             0.0000000000
     12714       110  CHL1      C17             6.4693269650       14.6000980151       -8.8608100000  MEMB      110             0.0000000000
     12715       110  CHL1      H17             5.9265673566       15.5675217103       -8.9227200000  MEMB      110             0.0000000000
     12716       110  CHL1      C13             6.1793266575       13.7398831614      -10.0916200000  MEMB      110             0.0000000000
     12717       110  CHL1      C18             6.5907526855       12.1486408362       -9.8854600000  MEMB      110             0.0000000000
     12718       110  CHL1      H18A            5.8392605686       11.6560037496       -9.2320800000  MEMB      110             0.0000000000
     12719       110  CHL1      H18B            6.6858460274       11.6853937957      -10.8907900000  MEMB      110             0.0000000000
     12720       110  CHL1      H18C            7.6289320779       12.0995461506       -9.4929000000  MEMB      110             0.0000000000
     12721       110  CHL1      C12             4.7339129286       13.7760627868      -10.6539200000  MEMB      110             0.0000000000
     12722       110  CHL1      H12A            4.2152063141       13.0780033821       -9.9625600000  MEMB      110             0.0000000000
     12723       110  CHL1      H12B            4.2757464896       14.7817404254      -10.5398700000  MEMB      110             0.0000000000
     12724       110  CHL1      C11             4.6374030497       13.4724077798      -12.1505300000  MEMB      110             0.0000000000
     12725       110  CHL1      H11A            4.5475226810       12.3874337450      -12.3720500000  MEMB      110             0.0000000000
     12726       110  CHL1      H11B            3.6907321566       13.9420828704      -12.4933700000  MEMB      110             0.0000000000
     12727       110  CHL1      C9              5.7832497300       13.9917896281      -13.0772000000  MEMB      110             0.0000000000
     12728       110  CHL1      H9              5.4584104889       15.0542239685      -13.0826500000  MEMB      110             0.0000000000
     12729       110  CHL1      C10             5.6699311091       13.5911531518      -14.5698300000  MEMB      110             0.0000000000
     12730       110  CHL1      C19             5.8705850516       12.0483059689      -14.7069700000  MEMB      110             0.0000000000
     12731       110  CHL1      H19A            6.8841393294       11.7967189254      -14.3278400000  MEMB      110             0.0000000000
     12732       110  CHL1      H19B            5.1294863289       11.4544809549      -14.1303700000  MEMB      110             0.0000000000
     12733       110  CHL1      H19C            5.8475329398       11.7642488228      -15.7807900000  MEMB      110             0.0000000000
     12734       110  CHL1      C1              4.3355741732       13.8869541915      -15.1678800000  MEMB      110             0.0000000000
     12735       110  CHL1      H1A             3.5839939364       13.2337710983      -14.6751200000  MEMB      110             0.0000000000
     12736       110  CHL1      H1B             4.0665750504       14.8984874662      -14.7953700000  MEMB      110             0.0000000000
     12737       110  CHL1      C2              4.2022481175       13.7369470115      -16.6610200000  MEMB      110             0.0000000000
     12738       110  CHL1      H2A             3.1655299288       13.9615414035      -16.9913300000  MEMB      110             0.0000000000
     12739       110  CHL1      H2B             4.4097802880       12.6712157638      -16.8965100000  MEMB      110             0.0000000000
     12740       110  CHL1      C20             6.0963687457       14.0663194543       -7.4326800000  MEMB      110             0.0000000000
     12741       110  CHL1      H20             6.6686855833       13.1447209564       -7.1930300000  MEMB      110             0.0000000000
     12742       110  CHL1      C21             4.6099318036       13.5922119978       -7.3487000000  MEMB      110             0.0000000000
     12743       110  CHL1      H21A            3.9201251200       14.4021197163       -7.6689300000  MEMB      110             0.0000000000
     12744       110  CHL1      H21B            4.2942225852       13.3383232603       -6.3142000000  MEMB      110             0.0000000000
     12745       110  CHL1      H21C            4.5283471793       12.6024720426       -7.8467800000  MEMB      110             0.0000000000
     12746       110  CHL1      C22             6.3542490196       15.1704570443       -6.4327300000  MEMB      110             0.0000000000
     12747       110  CHL1      H22A            7.4432621686       15.3903936766       -6.4314500000  MEMB      110             0.0000000000
     12748       110  CHL1      H22B            5.7742284288       16.0565697157       -6.7684500000  MEMB      110             0.0000000000
     12749       110  CHL1      C23             6.0187182176       14.8268713681       -4.9934100000  MEMB      110             0.0000000000
     12750       110  CHL1      H23A            4.9555237708       14.8978420554       -4.6789200000  MEMB      110             0.0000000000
     12751       110  CHL1      H23B            6.1345160078       13.7307947803       -4.8537000000  MEMB      110             0.0000000000
     12752       110  CHL1      C24             6.8070938362       15.5801659030       -3.9540000000  MEMB      110             0.0000000000
     12753       110  CHL1      H24A            7.8757203142       15.2987992900       -4.0688700000  MEMB      110             0.0000000000
     12754       110  CHL1      H24B            6.8097148535       16.6527522344       -4.2435800000  MEMB      110             0.0000000000
     12755       110  CHL1      C25             6.2168769392       15.3459981407       -2.5199200000  MEMB      110             0.0000000000
     12756       110  CHL1      H25             6.1379457863       14.2528790722       -2.3377700000  MEMB      110             0.0000000000
     12757       110  CHL1      C26             7.1855509976       15.7830225823       -1.3339400000  MEMB      110             0.0000000000
     12758       110  CHL1      H26A            8.1104941113       15.1749495333       -1.4290000000  MEMB      110             0.0000000000
     12759       110  CHL1      H26B            7.2825998535       16.8887707378       -1.2867700000  MEMB      110             0.0000000000
     12760       110  CHL1      H26C            6.6515777879       15.5741977189       -0.3823200000  MEMB      110             0.0000000000
     12761       110  CHL1      C27             4.9366770147       16.0885663769       -2.2863400000  MEMB      110             0.0000000000
     12762       110  CHL1      H27A            4.4394251235       15.7589134001       -1.3491200000  MEMB      110             0.0000000000
     12763       110  CHL1      H27B            5.1146075568       17.1760928926       -2.1451200000  MEMB      110             0.0000000000
     12764       110  CHL1      H27C            4.2488056282       15.9273639879       -3.1437600000  MEMB      110             0.0000000000
     12765       111  CHL1      C3             -2.4023246043       16.3428153916      -17.3543600000  MEMB      111             0.0000000000
     12766       111  CHL1      H3             -3.4333156934       15.9552451554      -17.4998600000  MEMB      111             0.0000000000
     12767       111  CHL1      O3             -1.8657966305       16.5668482760      -18.6456400000  MEMB      111             0.0000000000
     12768       111  CHL1      H3'            -2.1717732417       15.8402952204      -19.1934500000  MEMB      111             0.0000000000
     12769       111  CHL1      C4             -2.3999975320       17.6567395654      -16.5536200000  MEMB      111             0.0000000000
     12770       111  CHL1      H4A            -1.3295754182       17.9481931808      -16.4938400000  MEMB      111             0.0000000000
     12771       111  CHL1      H4B            -3.0088540957       18.3755538987      -17.1426100000  MEMB      111             0.0000000000
     12772       111  CHL1      C5             -2.7854260421       17.4016570021      -15.1007500000  MEMB      111             0.0000000000
     12773       111  CHL1      C6             -3.8174807294       18.0486324077      -14.5331900000  MEMB      111             0.0000000000
     12774       111  CHL1      H6             -4.4296292503       18.5726156162      -15.2820000000  MEMB      111             0.0000000000
     12775       111  CHL1      C7             -4.2406028892       17.9606938579      -13.1538600000  MEMB      111             0.0000000000
     12776       111  CHL1      H7A            -4.6216247831       18.9371164633      -12.7854300000  MEMB      111             0.0000000000
     12777       111  CHL1      H7B            -5.1074579279       17.2668996014      -13.1146000000  MEMB      111             0.0000000000
     12778       111  CHL1      C8             -2.9835896524       17.6108277336      -12.3250900000  MEMB      111             0.0000000000
     12779       111  CHL1      H8             -2.1818966903       18.3798446029      -12.3403000000  MEMB      111             0.0000000000
     12780       111  CHL1      C14            -3.4673783605       17.3830108896      -10.8002000000  MEMB      111             0.0000000000
     12781       111  CHL1      H14            -4.1700415828       16.5250915285      -10.8677500000  MEMB      111             0.0000000000
     12782       111  CHL1      C15            -4.2880637615       18.4746524758      -10.1172000000  MEMB      111             0.0000000000
     12783       111  CHL1      H15A           -3.8827123441       19.4875597011      -10.3270500000  MEMB      111             0.0000000000
     12784       111  CHL1      H15B           -5.3563398400       18.4513925865      -10.4214300000  MEMB      111             0.0000000000
     12785       111  CHL1      C16            -4.1348971575       18.1669427757       -8.6050300000  MEMB      111             0.0000000000
     12786       111  CHL1      H16A           -3.8315463319       19.1049851650       -8.0928100000  MEMB      111             0.0000000000
     12787       111  CHL1      H16B           -5.1203748183       17.8054587034       -8.2410600000  MEMB      111             0.0000000000
     12788       111  CHL1      C17            -3.0343338316       17.0384599284       -8.5416900000  MEMB      111             0.0000000000
     12789       111  CHL1      H17            -3.6037909978       16.0855013084       -8.5855200000  MEMB      111             0.0000000000
     12790       111  CHL1      C13            -2.3901955716       17.0687042943       -9.9010400000  MEMB      111             0.0000000000
     12791       111  CHL1      C18            -1.3111740283       18.1933777469       -9.8387900000  MEMB      111             0.0000000000
     12792       111  CHL1      H18A           -1.8164106022       19.1236705468       -9.5017200000  MEMB      111             0.0000000000
     12793       111  CHL1      H18B           -0.5195133545       17.8895700207       -9.1209500000  MEMB      111             0.0000000000
     12794       111  CHL1      H18C           -0.8935670928       18.2755296913      -10.8650400000  MEMB      111             0.0000000000
     12795       111  CHL1      C12            -2.0009535655       15.6265249926      -10.3716300000  MEMB      111             0.0000000000
     12796       111  CHL1      H12A           -1.1924675062       15.2096458120       -9.7337500000  MEMB      111             0.0000000000
     12797       111  CHL1      H12B           -2.8972031884       14.9787327894      -10.2646600000  MEMB      111             0.0000000000
     12798       111  CHL1      C11            -1.4112817011       15.6703123919      -11.8522600000  MEMB      111             0.0000000000
     12799       111  CHL1      H11A           -0.4927736262       16.2936631914      -11.8064700000  MEMB      111             0.0000000000
     12800       111  CHL1      H11B           -1.1197512245       14.6475466291      -12.1736300000  MEMB      111             0.0000000000
     12801       111  CHL1      C9             -2.3487892515       16.2721772956      -12.8931500000  MEMB      111             0.0000000000
     12802       111  CHL1      H9             -3.1790190008       15.5348819060      -12.9311600000  MEMB      111             0.0000000000
     12803       111  CHL1      C10            -1.8303051682       16.4377089381      -14.3210200000  MEMB      111             0.0000000000
     12804       111  CHL1      C19            -0.4443129484       17.1005490697      -14.2061400000  MEMB      111             0.0000000000
     12805       111  CHL1      H19A           -0.0303493440       17.5295901292      -15.1436300000  MEMB      111             0.0000000000
     12806       111  CHL1      H19B           -0.4452124141       18.0226903750      -13.5864900000  MEMB      111             0.0000000000
     12807       111  CHL1      H19C            0.3428863225       16.4445122107      -13.7768800000  MEMB      111             0.0000000000
     12808       111  CHL1      C1             -1.6393863150       15.1094284841      -15.1138000000  MEMB      111             0.0000000000
     12809       111  CHL1      H1A            -0.6896810026       14.5554684559      -14.9540700000  MEMB      111             0.0000000000
     12810       111  CHL1      H1B            -2.5342826586       14.4699285626      -14.9572100000  MEMB      111             0.0000000000
     12811       111  CHL1      C2             -1.4956773601       15.3047283916      -16.6499900000  MEMB      111             0.0000000000
     12812       111  CHL1      H2A            -1.6135262608       14.2772267253      -17.0558000000  MEMB      111             0.0000000000
     12813       111  CHL1      H2B            -0.4234979437       15.5799570852      -16.7449400000  MEMB      111             0.0000000000
     12814       111  CHL1      C20            -2.2988421951       17.1169715119       -7.1729900000  MEMB      111             0.0000000000
     12815       111  CHL1      H20            -1.6698496151       18.0327432926       -7.1796800000  MEMB      111             0.0000000000
     12816       111  CHL1      C21            -1.1952297131       15.9714508375       -6.9128200000  MEMB      111             0.0000000000
     12817       111  CHL1      H21A           -0.4837962756       15.8301042189       -7.7543700000  MEMB      111             0.0000000000
     12818       111  CHL1      H21B           -1.7121830445       15.0052083278       -6.7298800000  MEMB      111             0.0000000000
     12819       111  CHL1      H21C           -0.6089107770       16.1946455232       -5.9959100000  MEMB      111             0.0000000000
     12820       111  CHL1      C22            -3.3374595012       17.2369029716       -5.9706400000  MEMB      111             0.0000000000
     12821       111  CHL1      H22A           -3.6579520703       18.2965723291       -6.0640100000  MEMB      111             0.0000000000
     12822       111  CHL1      H22B           -4.1990207547       16.5584036043       -6.1485900000  MEMB      111             0.0000000000
     12823       111  CHL1      C23            -2.8231515402       16.9663326470       -4.6155600000  MEMB      111             0.0000000000
     12824       111  CHL1      H23A           -2.6798718364       15.8811847422       -4.4251700000  MEMB      111             0.0000000000
     12825       111  CHL1      H23B           -1.8324173791       17.4578565240       -4.5098900000  MEMB      111             0.0000000000
     12826       111  CHL1      C24            -3.6349040963       17.7039531379       -3.5289900000  MEMB      111             0.0000000000
     12827       111  CHL1      H24A           -3.4736784901       18.8030761294       -3.5449700000  MEMB      111             0.0000000000
     12828       111  CHL1      H24B           -4.7249833429       17.5398469325       -3.6672600000  MEMB      111             0.0000000000
     12829       111  CHL1      C25            -3.1688228213       17.2910864983       -2.1276000000  MEMB      111             0.0000000000
     12830       111  CHL1      H25            -3.3724084160       16.1990011111       -2.1428900000  MEMB      111             0.0000000000
     12831       111  CHL1      C26            -1.6692768806       17.5043501491       -1.6851900000  MEMB      111             0.0000000000
     12832       111  CHL1      H26A           -1.3590317060       18.5584369348       -1.8494100000  MEMB      111             0.0000000000
     12833       111  CHL1      H26B           -1.4294157282       17.2195926311       -0.6384300000  MEMB      111             0.0000000000
     12834       111  CHL1      H26C           -1.0476175637       16.8499362933       -2.3329500000  MEMB      111             0.0000000000
     12835       111  CHL1      C27            -4.0073350148       17.7664725492       -0.9326300000  MEMB      111             0.0000000000
     12836       111  CHL1      H27A           -3.9290611346       18.8659119744       -0.7932100000  MEMB      111             0.0000000000
     12837       111  CHL1      H27B           -5.0509719970       17.4601185034       -1.1590900000  MEMB      111             0.0000000000
     12838       111  CHL1      H27C           -3.8059879659       17.3481556919        0.0767200000  MEMB      111             0.0000000000
     12839       112  SAPE      N              16.2411067094        6.9287485107      -17.2215940110  MEMB      112             0.0000000000
     12840       112  SAPE      HN1            16.9914038120        6.3318497753      -17.6245409962  MEMB      112             0.0000000000
     12841       112  SAPE      HN2            16.6902223617        7.5387144954      -16.5089673058  MEMB      112             0.0000000000
     12842       112  SAPE      HN3            15.4736875181        6.3239542926      -16.8653754326  MEMB      112             0.0000000000
     12843       112  SAPE      C12            15.7431326521        7.6619372015      -18.4377632199  MEMB      112             0.0000000000
     12844       112  SAPE      H12A           16.1546903714        8.6834214414      -18.2910973436  MEMB      112             0.0000000000
     12845       112  SAPE      H12B           14.6428788511        7.6444013619      -18.2846125862  MEMB      112             0.0000000000
     12846       112  SAPE      C11            16.1951722549        6.8703445624      -19.6784298530  MEMB      112             0.0000000000
     12847       112  SAPE      H11A           17.2939469780        6.7141490016      -19.7295986948  MEMB      112             0.0000000000
     12848       112  SAPE      H11B           15.8559661994        7.4974442081      -20.5304898527  MEMB      112             0.0000000000
     12849       112  SAPE      P              14.9772895243        5.0307068650      -20.9869746565  MEMB      112             0.0000000000
     12850       112  SAPE      O13            13.6245272371        5.6307883358      -21.1523521382  MEMB      112             0.0000000000
     12851       112  SAPE      O14            15.9382250539        5.2399592828      -22.0930250323  MEMB      112             0.0000000000
     12852       112  SAPE      O12            15.6383206828        5.5617900296      -19.6747779953  MEMB      112             0.0000000000
     12853       112  SAPE      O11            14.7371603097        3.5306947053      -20.7550831317  MEMB      112             0.0000000000
     12854       112  SAPE      C1             14.9753966594        2.8443831596      -19.5821888684  MEMB      112             0.0000000000
     12855       112  SAPE      HA             15.3573612267        1.8534285609      -19.9084296694  MEMB      112             0.0000000000
     12856       112  SAPE      HB             15.7005190864        3.3940258653      -18.9446848662  MEMB      112             0.0000000000
     12857       112  SAPE      C2             13.5931122278        2.6349447802      -18.8447552512  MEMB      112             0.0000000000
     12858       112  SAPE      HS             12.8807540067        2.1406176199      -19.5393828126  MEMB      112             0.0000000000
     12859       112  SAPE      O21            13.1042395949        3.9067692631      -18.3167585563  MEMB      112             0.0000000000
     12860       112  SAPE      C21            11.7608516996        3.9640078968      -18.2412701223  MEMB      112             0.0000000000
     12861       112  SAPE      O22            11.0241201635        3.1157068183      -18.6600343920  MEMB      112             0.0000000000
     12862       112  SAPE      C22            11.3507802061        5.3099404667      -17.6826962859  MEMB      112             0.0000000000
     12863       112  SAPE      H2R            12.3007214956        5.8636584356      -17.5235462920  MEMB      112             0.0000000000
     12864       112  SAPE      H2S            10.7080706612        5.7597500809      -18.4694089394  MEMB      112             0.0000000000
     12865       112  SAPE      C3             13.7754633303        1.6808433606      -17.6182520569  MEMB      112             0.0000000000
     12866       112  SAPE      HX             14.0236751042        0.7335126976      -18.1429198233  MEMB      112             0.0000000000
     12867       112  SAPE      HY             12.8767446807        1.6168111246      -16.9682321557  MEMB      112             0.0000000000
     12868       112  SAPE      O31            14.9138405801        2.1879845327      -16.9333739087  MEMB      112             0.0000000000
     12869       112  SAPE      C31            15.1757557532        1.7252400470      -15.7329614614  MEMB      112             0.0000000000
     12870       112  SAPE      O32            14.4270095057        1.1413295846      -14.9320879118  MEMB      112             0.0000000000
     12871       112  SAPE      C32            16.4864791991        2.3734388972      -15.3468539154  MEMB      112             0.0000000000
     12872       112  SAPE      H2X            16.3552325130        3.3824993101      -14.9008806709  MEMB      112             0.0000000000
     12873       112  SAPE      H2Y            17.0646171437        2.5581054752      -16.2774316889  MEMB      112             0.0000000000
     12874       112  SAPE      C23            10.5781887581        5.1625959464      -16.3779642518  MEMB      112             0.0000000000
     12875       112  SAPE      H3R             9.6343711335        4.5797125547      -16.4394086737  MEMB      112             0.0000000000
     12876       112  SAPE      H3S            10.3289067495        6.1636631426      -15.9656002178  MEMB      112             0.0000000000
     12877       112  SAPE      C24            11.4526961969        4.3841980002      -15.2757580661  MEMB      112             0.0000000000
     12878       112  SAPE      H4R            11.7709929549        3.3816639805      -15.6334365684  MEMB      112             0.0000000000
     12879       112  SAPE      H4S            10.5945844487        4.1626989837      -14.6057552438  MEMB      112             0.0000000000
     12880       112  SAPE      C25            12.5968826177        5.0816268635      -14.5860822956  MEMB      112             0.0000000000
     12881       112  SAPE      H5R            12.9986542311        5.8710929478      -15.2382500143  MEMB      112             0.0000000000
     12882       112  SAPE      C26            12.9578268061        4.9487122763      -13.2670439531  MEMB      112             0.0000000000
     12883       112  SAPE      H6R            13.8076413598        5.5404019666      -12.8959391456  MEMB      112             0.0000000000
     12884       112  SAPE      C27            12.3772846150        4.0936456586      -12.1145368285  MEMB      112             0.0000000000
     12885       112  SAPE      H7R            11.2806223116        4.2090518132      -11.9791323759  MEMB      112             0.0000000000
     12886       112  SAPE      H7S            12.8283369771        4.5053866614      -11.1864512977  MEMB      112             0.0000000000
     12887       112  SAPE      C28            12.6579362438        2.5922186956      -12.2767263815  MEMB      112             0.0000000000
     12888       112  SAPE      H8R            12.0667257798        2.0691309171      -13.0427873879  MEMB      112             0.0000000000
     12889       112  SAPE      C29            13.5788828833        1.9978690832      -11.5649441727  MEMB      112             0.0000000000
     12890       112  SAPE      H9R            13.6539554727        0.9116499855      -11.7214431646  MEMB      112             0.0000000000
     12891       112  SAPE      C210           14.4462679849        2.5745049124      -10.5255839553  MEMB      112             0.0000000000
     12892       112  SAPE      H10R           13.7558978350        3.0710958265       -9.8106661409  MEMB      112             0.0000000000
     12893       112  SAPE      H10S           15.0887245529        3.4313426248      -10.8212190105  MEMB      112             0.0000000000
     12894       112  SAPE      C211           15.4060763569        1.5728280022       -9.9037520753  MEMB      112             0.0000000000
     12895       112  SAPE      H11R           15.9566132922        0.9959878928      -10.6614881726  MEMB      112             0.0000000000
     12896       112  SAPE      C212           15.5275713661        1.2954292842       -8.6256571253  MEMB      112             0.0000000000
     12897       112  SAPE      H12R           16.2468065585        0.5230639612       -8.3155721268  MEMB      112             0.0000000000
     12898       112  SAPE      C213           14.6838299686        1.9671071843       -7.5482023483  MEMB      112             0.0000000000
     12899       112  SAPE      H13R           13.6876057660        2.2738127680       -7.9326369135  MEMB      112             0.0000000000
     12900       112  SAPE      H13S           15.1274880149        2.9217892792       -7.1931378112  MEMB      112             0.0000000000
     12901       112  SAPE      C214           14.4259700623        1.1820352780       -6.3490934345  MEMB      112             0.0000000000
     12902       112  SAPE      H14R           13.9854757247        0.1787259629       -6.4457122896  MEMB      112             0.0000000000
     12903       112  SAPE      C215           14.4215504506        1.6509639222       -5.0819162167  MEMB      112             0.0000000000
     12904       112  SAPE      H15R           14.1758115548        0.9519838448       -4.2688726834  MEMB      112             0.0000000000
     12905       112  SAPE      C216           14.7267578215        3.1194756363       -4.6365274705  MEMB      112             0.0000000000
     12906       112  SAPE      H16R           14.2858297299        3.2268280768       -3.6224366431  MEMB      112             0.0000000000
     12907       112  SAPE      H16S           14.1725568816        3.7484140494       -5.3656490408  MEMB      112             0.0000000000
     12908       112  SAPE      C217           16.1885708916        3.5158953173       -4.6131683896  MEMB      112             0.0000000000
     12909       112  SAPE      H17R           16.4012926083        4.5968719709       -4.4697805434  MEMB      112             0.0000000000
     12910       112  SAPE      H17S           16.6599647231        3.2057644029       -5.5702091326  MEMB      112             0.0000000000
     12911       112  SAPE      C218           17.0007881448        2.9034302373       -3.4650055493  MEMB      112             0.0000000000
     12912       112  SAPE      H18R           16.6762155357        1.8966401784       -3.1253777887  MEMB      112             0.0000000000
     12913       112  SAPE      H18S           16.9632703825        3.5700249638       -2.5769952173  MEMB      112             0.0000000000
     12914       112  SAPE      C219           18.5065149429        2.6644260726       -3.7816012630  MEMB      112             0.0000000000
     12915       112  SAPE      H19R           19.0334422879        3.5968612785       -4.0769534215  MEMB      112             0.0000000000
     12916       112  SAPE      H19S           18.6376977255        1.9657561679       -4.6354004734  MEMB      112             0.0000000000
     12917       112  SAPE      C220           19.2712561117        2.1164236573       -2.5293660758  MEMB      112             0.0000000000
     12918       112  SAPE      H20R           20.3408998427        1.9140531829       -2.7512429521  MEMB      112             0.0000000000
     12919       112  SAPE      H20S           18.7853811942        1.2079177286       -2.1135976795  MEMB      112             0.0000000000
     12920       112  SAPE      H20T           19.2385463637        2.7639187825       -1.6271449168  MEMB      112             0.0000000000
     12921       112  SAPE      C33            17.2811168918        1.5146148108      -14.3039189672  MEMB      112             0.0000000000
     12922       112  SAPE      H3X            17.3614708930        0.5112772423      -14.7742147381  MEMB      112             0.0000000000
     12923       112  SAPE      H3Y            16.7174864299        1.3949425255      -13.3540133153  MEMB      112             0.0000000000
     12924       112  SAPE      C34            18.7869542919        2.0683750012      -14.1930596740  MEMB      112             0.0000000000
     12925       112  SAPE      H4X            19.1872965942        2.3277401968      -15.1964423116  MEMB      112             0.0000000000
     12926       112  SAPE      H4Y            19.3717482067        1.2069471669      -13.8054009074  MEMB      112             0.0000000000
     12927       112  SAPE      C35            18.9276999530        3.2320541886      -13.3177251756  MEMB      112             0.0000000000
     12928       112  SAPE      H5X            18.3639259814        4.0672244026      -13.7856682916  MEMB      112             0.0000000000
     12929       112  SAPE      H5Y            19.9884328201        3.5542473244      -13.3909249370  MEMB      112             0.0000000000
     12930       112  SAPE      C36            18.5702872622        3.0659215895      -11.8930125256  MEMB      112             0.0000000000
     12931       112  SAPE      H6X            19.1572311676        2.2632161260      -11.3975521983  MEMB      112             0.0000000000
     12932       112  SAPE      H6Y            17.4967441439        2.7816042981      -11.9244759603  MEMB      112             0.0000000000
     12933       112  SAPE      C37            18.7408255346        4.3707164712      -11.2109067765  MEMB      112             0.0000000000
     12934       112  SAPE      H7X            18.4662322109        5.2148167240      -11.8790488375  MEMB      112             0.0000000000
     12935       112  SAPE      H7Y            19.7885299604        4.5937550377      -10.9161352322  MEMB      112             0.0000000000
     12936       112  SAPE      C38            17.9351533174        4.2674523761       -9.8929754023  MEMB      112             0.0000000000
     12937       112  SAPE      H8X            18.3739907212        3.5632161731       -9.1541962930  MEMB      112             0.0000000000
     12938       112  SAPE      H8Y            16.8988723802        3.8855107759      -10.0136542801  MEMB      112             0.0000000000
     12939       112  SAPE      C39            17.7332801238        5.5624627240       -9.1050132767  MEMB      112             0.0000000000
     12940       112  SAPE      H9X            17.8810819451        6.4484617560       -9.7588339416  MEMB      112             0.0000000000
     12941       112  SAPE      H9Y            18.4297330880        5.6239607065       -8.2415940955  MEMB      112             0.0000000000
     12942       112  SAPE      C310           16.3614305697        5.6234426733       -8.3342929274  MEMB      112             0.0000000000
     12943       112  SAPE      H10X           16.4365396872        4.9358276107       -7.4648878599  MEMB      112             0.0000000000
     12944       112  SAPE      H10Y           15.6344351769        5.1055991766       -8.9958348292  MEMB      112             0.0000000000
     12945       112  SAPE      C311           15.9006196100        6.9632749181       -8.0520324485  MEMB      112             0.0000000000
     12946       112  SAPE      H11X           15.9772222469        7.6372339337       -8.9319377098  MEMB      112             0.0000000000
     12947       112  SAPE      H11Y           16.6266761447        7.4201930820       -7.3460659967  MEMB      112             0.0000000000
     12948       112  SAPE      C312           14.5148196210        6.9578486574       -7.4384927914  MEMB      112             0.0000000000
     12949       112  SAPE      H12X           14.2203393911        8.0145381126       -7.2623967949  MEMB      112             0.0000000000
     12950       112  SAPE      H12Y           14.5395372342        6.4105836176       -6.4719466725  MEMB      112             0.0000000000
     12951       112  SAPE      C313           13.3861050855        6.4253604157       -8.3586244839  MEMB      112             0.0000000000
     12952       112  SAPE      H13X           13.5376985058        5.3327327361       -8.4909308867  MEMB      112             0.0000000000
     12953       112  SAPE      H13Y           13.4951669928        6.9643194575       -9.3239998341  MEMB      112             0.0000000000
     12954       112  SAPE      C314           11.9959858226        6.6160612675       -7.7345138012  MEMB      112             0.0000000000
     12955       112  SAPE      H14X           11.2413069000        6.1675783619       -8.4154281440  MEMB      112             0.0000000000
     12956       112  SAPE      H14Y           11.7664719306        7.6951585084       -7.6033906162  MEMB      112             0.0000000000
     12957       112  SAPE      C315           11.7521626309        5.8551239376       -6.3860550571  MEMB      112             0.0000000000
     12958       112  SAPE      H15X           12.6593819901        5.9089553130       -5.7470111311  MEMB      112             0.0000000000
     12959       112  SAPE      H15Y           11.6071833784        4.7772847804       -6.6131332588  MEMB      112             0.0000000000
     12960       112  SAPE      C316           10.5755422426        6.5432437795       -5.7123038513  MEMB      112             0.0000000000
     12961       112  SAPE      H16X            9.6922031821        6.4810815418       -6.3832503218  MEMB      112             0.0000000000
     12962       112  SAPE      H16Y           10.7521265243        7.6383415002       -5.6498553824  MEMB      112             0.0000000000
     12963       112  SAPE      C317           10.2037601700        5.8452557866       -4.3762621007  MEMB      112             0.0000000000
     12964       112  SAPE      H17X           10.1882500699        4.7469581547       -4.5430640685  MEMB      112             0.0000000000
     12965       112  SAPE      H17Y            9.1631171722        6.1527777703       -4.1379071188  MEMB      112             0.0000000000
     12966       112  SAPE      C318           11.0627448883        6.1259656315       -3.2314509711  MEMB      112             0.0000000000
     12967       112  SAPE      H18X           12.0879084470        5.7159497445       -3.3549311078  MEMB      112             0.0000000000
     12968       112  SAPE      H18Y           10.7667728940        5.7183887574       -2.2411976214  MEMB      112             0.0000000000
     12969       112  SAPE      H18Z           11.3122782285        7.2085304678       -3.2210946648  MEMB      112             0.0000000000
     12970       113  SAPC      N               8.8255059865      -15.3134008439      -18.2650358478  MEMB      113             0.0000000000
     12971       113  SAPC      C12             9.1713093362      -16.2490571853      -19.4539894231  MEMB      113             0.0000000000
     12972       113  SAPC      H12A            9.6426588660      -17.1082816837      -19.0001580709  MEMB      113             0.0000000000
     12973       113  SAPC      H12B            9.8969958098      -15.7927794823      -20.1109443054  MEMB      113             0.0000000000
     12974       113  SAPC      C13             7.5962621642      -15.8101080688      -17.5338976278  MEMB      113             0.0000000000
     12975       113  SAPC      H13A            7.6582405941      -16.8567440921      -17.2748385239  MEMB      113             0.0000000000
     12976       113  SAPC      H13B            7.5017137371      -15.1455033398      -16.6878709114  MEMB      113             0.0000000000
     12977       113  SAPC      H13C            6.7108712748      -15.7134251843      -18.1447456669  MEMB      113             0.0000000000
     12978       113  SAPC      C14             9.9897784896      -15.2153535791      -17.3144061281  MEMB      113             0.0000000000
     12979       113  SAPC      H14A            9.6838258354      -14.7010555162      -16.4153563368  MEMB      113             0.0000000000
     12980       113  SAPC      H14B           10.4747835964      -16.1740430891      -17.2044781187  MEMB      113             0.0000000000
     12981       113  SAPC      H14C           10.7367850143      -14.6695508085      -17.8716138152  MEMB      113             0.0000000000
     12982       113  SAPC      C15             8.5492432315      -13.9601698026      -18.7503010092  MEMB      113             0.0000000000
     12983       113  SAPC      H15A            7.6794128340      -14.0042118685      -19.3889365085  MEMB      113             0.0000000000
     12984       113  SAPC      H15B            8.3679020680      -13.3460492142      -17.8806049482  MEMB      113             0.0000000000
     12985       113  SAPC      H15C            9.3967906182      -13.6248074270      -19.3296070060  MEMB      113             0.0000000000
     12986       113  SAPC      C11             8.0221905846      -16.6745500528      -20.4471600017  MEMB      113             0.0000000000
     12987       113  SAPC      H11A            7.1438560825      -17.1565573136      -19.9670365304  MEMB      113             0.0000000000
     12988       113  SAPC      H11B            8.5130502852      -17.4764621760      -21.0390338657  MEMB      113             0.0000000000
     12989       113  SAPC      P               6.3131153250      -15.1416223378      -21.7229353870  MEMB      113             0.0000000000
     12990       113  SAPC      O13             6.3505141467      -13.7882538255      -22.3280875164  MEMB      113             0.0000000000
     12991       113  SAPC      O14             5.7478680025      -16.1997220381      -22.5415898390  MEMB      113             0.0000000000
     12992       113  SAPC      O12             7.7322588397      -15.5736912613      -21.3017505968  MEMB      113             0.0000000000
     12993       113  SAPC      O11             5.5789389506      -15.0572645287      -20.3408466609  MEMB      113             0.0000000000
     12994       113  SAPC      C1              4.2059265451      -14.8259198148      -20.3319646273  MEMB      113             0.0000000000
     12995       113  SAPC      HA              3.7333704486      -15.2126544662      -21.2601068379  MEMB      113             0.0000000000
     12996       113  SAPC      HB              3.8363967139      -15.4729734143      -19.5078952162  MEMB      113             0.0000000000
     12997       113  SAPC      C2              3.8859110958      -13.3313122019      -20.2267574888  MEMB      113             0.0000000000
     12998       113  SAPC      HS              4.1067684817      -13.0038773500      -21.2651838710  MEMB      113             0.0000000000
     12999       113  SAPC      O21             4.7656963861      -12.7751703206      -19.2331871109  MEMB      113             0.0000000000
     13000       113  SAPC      C21             4.6675423514      -11.5935775588      -18.7143148602  MEMB      113             0.0000000000
     13001       113  SAPC      O22             3.9185525939      -10.6884236072      -19.0937317234  MEMB      113             0.0000000000
     13002       113  SAPC      C22             5.7255521246      -11.4477205286      -17.7260034717  MEMB      113             0.0000000000
     13003       113  SAPC      H2R             5.9662194823      -12.4626222873      -17.3434136780  MEMB      113             0.0000000000
     13004       113  SAPC      H2S             6.6764522108      -11.0137792941      -18.1025737173  MEMB      113             0.0000000000
     13005       113  SAPC      C3              2.3437258335      -13.0860975769      -19.8726218339  MEMB      113             0.0000000000
     13006       113  SAPC      HX              1.7571507226      -13.8534098677      -20.4216958300  MEMB      113             0.0000000000
     13007       113  SAPC      HY              1.9104653800      -12.1409516620      -20.2641641771  MEMB      113             0.0000000000
     13008       113  SAPC      O31             2.0756768597      -13.2495226473      -18.4468466552  MEMB      113             0.0000000000
     13009       113  SAPC      C31             1.4202695096      -14.3037706109      -17.9620037915  MEMB      113             0.0000000000
     13010       113  SAPC      O32             1.0201780528      -15.2530475113      -18.5868127083  MEMB      113             0.0000000000
     13011       113  SAPC      C32             1.1008947347      -14.0779137453      -16.5101157570  MEMB      113             0.0000000000
     13012       113  SAPC      H2X             0.1490496687      -14.5560575084      -16.1943772122  MEMB      113             0.0000000000
     13013       113  SAPC      H2Y             1.0705108891      -12.9904708204      -16.2845817153  MEMB      113             0.0000000000
     13014       113  SAPC      C23             5.1827115680      -10.6366963174      -16.5648389947  MEMB      113             0.0000000000
     13015       113  SAPC      H3R             4.2080722983      -11.0084185334      -16.1824499858  MEMB      113             0.0000000000
     13016       113  SAPC      H3S             4.9121824869       -9.6295089443      -16.9478646390  MEMB      113             0.0000000000
     13017       113  SAPC      C24             5.9729708573      -10.6288255592      -15.2507593111  MEMB      113             0.0000000000
     13018       113  SAPC      H4R             5.7871070444      -11.5378967380      -14.6397235584  MEMB      113             0.0000000000
     13019       113  SAPC      H4S             5.5169961254       -9.7225616647      -14.7978860562  MEMB      113             0.0000000000
     13020       113  SAPC      C25             7.4245009626      -10.4645613433      -15.4800635426  MEMB      113             0.0000000000
     13021       113  SAPC      H5R             7.5542485647       -9.6148790795      -16.1665082025  MEMB      113             0.0000000000
     13022       113  SAPC      C26             8.4819396487      -11.1501562999      -15.0072309850  MEMB      113             0.0000000000
     13023       113  SAPC      H6R             9.5269822713      -10.8485759224      -15.1713513144  MEMB      113             0.0000000000
     13024       113  SAPC      C27             8.3275908152      -12.3445797935      -14.0590780822  MEMB      113             0.0000000000
     13025       113  SAPC      H7R             8.8324751888      -13.1764194792      -14.5952271352  MEMB      113             0.0000000000
     13026       113  SAPC      H7S             7.2791238469      -12.6768430780      -13.9021095310  MEMB      113             0.0000000000
     13027       113  SAPC      C28             8.9652107153      -12.2516336280      -12.7009714735  MEMB      113             0.0000000000
     13028       113  SAPC      H8R            10.0648003534      -12.2497587172      -12.7309506037  MEMB      113             0.0000000000
     13029       113  SAPC      C29             8.3175690910      -12.2259135045      -11.5413484275  MEMB      113             0.0000000000
     13030       113  SAPC      H9R             8.9054525791      -12.0775640589      -10.6235328124  MEMB      113             0.0000000000
     13031       113  SAPC      C210            6.8246053119      -12.3047290484      -11.3838444159  MEMB      113             0.0000000000
     13032       113  SAPC      H10R            6.6199965027      -13.1274609808      -10.6658138261  MEMB      113             0.0000000000
     13033       113  SAPC      H10S            6.3781529864      -12.6307916215      -12.3475277999  MEMB      113             0.0000000000
     13034       113  SAPC      C211            6.1415718051      -11.2080086617      -10.7883273852  MEMB      113             0.0000000000
     13035       113  SAPC      H11R            6.1119432006      -10.2922473370      -11.3970179982  MEMB      113             0.0000000000
     13036       113  SAPC      C212            5.5255270452      -11.1198592212       -9.6103451596  MEMB      113             0.0000000000
     13037       113  SAPC      H12R            4.9548896355      -10.1996643115       -9.4164021816  MEMB      113             0.0000000000
     13038       113  SAPC      C213            5.4757185170      -12.2385677272       -8.6136205972  MEMB      113             0.0000000000
     13039       113  SAPC      H13R            5.2851832623      -13.2289455053       -9.0796342278  MEMB      113             0.0000000000
     13040       113  SAPC      H13S            4.6773950336      -12.1026887319       -7.8530038869  MEMB      113             0.0000000000
     13041       113  SAPC      C214            6.6915616551      -12.5021544967       -7.7173236450  MEMB      113             0.0000000000
     13042       113  SAPC      H14R            6.9756330073      -13.5478038588       -7.9068520421  MEMB      113             0.0000000000
     13043       113  SAPC      C215            7.3557677965      -11.7183998402       -6.8224830730  MEMB      113             0.0000000000
     13044       113  SAPC      H15R            8.2486218730      -12.0908453421       -6.2989416533  MEMB      113             0.0000000000
     13045       113  SAPC      C216            6.9847214068      -10.3326475690       -6.5409653436  MEMB      113             0.0000000000
     13046       113  SAPC      H16R            5.9383479240      -10.1677373437       -6.8759710801  MEMB      113             0.0000000000
     13047       113  SAPC      H16S            7.5618966300       -9.6545837039       -7.2053599928  MEMB      113             0.0000000000
     13048       113  SAPC      C217            7.1447835878      -10.0145336548       -5.0563423216  MEMB      113             0.0000000000
     13049       113  SAPC      H17R            7.1198118579       -8.9182394659       -4.8779134888  MEMB      113             0.0000000000
     13050       113  SAPC      H17S            8.1503552737      -10.3193889313       -4.6954962864  MEMB      113             0.0000000000
     13051       113  SAPC      C218            6.0385888786      -10.7468079820       -4.2767849900  MEMB      113             0.0000000000
     13052       113  SAPC      H18R            6.1609727745      -11.8480646410       -4.3578792007  MEMB      113             0.0000000000
     13053       113  SAPC      H18S            5.0332652644      -10.4882491136       -4.6727557075  MEMB      113             0.0000000000
     13054       113  SAPC      C219            5.9769096530      -10.4993065710       -2.7508571049  MEMB      113             0.0000000000
     13055       113  SAPC      H19R            5.0330462743      -10.9389849339       -2.3633947364  MEMB      113             0.0000000000
     13056       113  SAPC      H19S            5.9398949360       -9.4134018930       -2.5189902626  MEMB      113             0.0000000000
     13057       113  SAPC      C220            7.2908580650      -10.9822774082       -2.1345175365  MEMB      113             0.0000000000
     13058       113  SAPC      H20R            7.2583813226      -11.1531028632       -1.0372097509  MEMB      113             0.0000000000
     13059       113  SAPC      H20S            8.0666237043      -10.2080996864       -2.3166084255  MEMB      113             0.0000000000
     13060       113  SAPC      H20T            7.6626820814      -11.8856589049       -2.6636391790  MEMB      113             0.0000000000
     13061       113  SAPC      C33             2.1607457151      -14.7627171727      -15.6769673510  MEMB      113             0.0000000000
     13062       113  SAPC      H3X             2.2138398387      -15.8323327998      -15.9726437021  MEMB      113             0.0000000000
     13063       113  SAPC      H3Y             1.9801561954      -14.6395596667      -14.5876832740  MEMB      113             0.0000000000
     13064       113  SAPC      C34             3.6810779777      -14.1769353836      -15.8905280697  MEMB      113             0.0000000000
     13065       113  SAPC      H4X             3.5562326248      -13.0755373503      -15.8153156892  MEMB      113             0.0000000000
     13066       113  SAPC      H4Y             3.9427997840      -14.3131291450      -16.9616365450  MEMB      113             0.0000000000
     13067       113  SAPC      C35             4.7424524260      -14.6221549335      -14.8408148279  MEMB      113             0.0000000000
     13068       113  SAPC      H5X             4.4720480157      -14.2470981902      -13.8305994104  MEMB      113             0.0000000000
     13069       113  SAPC      H5Y             5.7516924521      -14.1742673549      -14.9639091990  MEMB      113             0.0000000000
     13070       113  SAPC      C36             4.8642298383      -16.1950829343      -14.8555134539  MEMB      113             0.0000000000
     13071       113  SAPC      H6X             5.1253350886      -16.5111392149      -15.8881088582  MEMB      113             0.0000000000
     13072       113  SAPC      H6Y             3.9504755105      -16.7912187567      -14.6457607358  MEMB      113             0.0000000000
     13073       113  SAPC      C37             5.9425141867      -16.5279167143      -13.8041499443  MEMB      113             0.0000000000
     13074       113  SAPC      H7X             6.7970204294      -15.8614805238      -14.0491044867  MEMB      113             0.0000000000
     13075       113  SAPC      H7Y             6.2309057709      -17.5747977127      -14.0390779560  MEMB      113             0.0000000000
     13076       113  SAPC      C38             5.4829709092      -16.5056119979      -12.2869358558  MEMB      113             0.0000000000
     13077       113  SAPC      H8X             4.6977547564      -17.2659756250      -12.0879287775  MEMB      113             0.0000000000
     13078       113  SAPC      H8Y             5.0810442273      -15.5043383588      -12.0219304238  MEMB      113             0.0000000000
     13079       113  SAPC      C39             6.6210380691      -16.8052439875      -11.3118707432  MEMB      113             0.0000000000
     13080       113  SAPC      H9X             7.3396968095      -15.9690028171      -11.4480747700  MEMB      113             0.0000000000
     13081       113  SAPC      H9Y             7.1852996027      -17.6529932015      -11.7560012181  MEMB      113             0.0000000000
     13082       113  SAPC      C310            6.0932369079      -17.0959672452       -9.8718304210  MEMB      113             0.0000000000
     13083       113  SAPC      H10X            5.4757656588      -18.0130637710       -9.7623571968  MEMB      113             0.0000000000
     13084       113  SAPC      H10Y            5.4884911056      -16.2605932061       -9.4586068021  MEMB      113             0.0000000000
     13085       113  SAPC      C311            7.3149522193      -17.2193058706       -8.9171907316  MEMB      113             0.0000000000
     13086       113  SAPC      H11X            7.8733377853      -16.2629258845       -9.0058701479  MEMB      113             0.0000000000
     13087       113  SAPC      H11Y            8.0148780198      -18.0227647387       -9.2316408638  MEMB      113             0.0000000000
     13088       113  SAPC      C312            6.9877382249      -17.7187323977       -7.4423924240  MEMB      113             0.0000000000
     13089       113  SAPC      H12X            7.8942439700      -18.0099252692       -6.8698759978  MEMB      113             0.0000000000
     13090       113  SAPC      H12Y            6.4134886634      -18.6609376325       -7.5720380741  MEMB      113             0.0000000000
     13091       113  SAPC      C313            6.1165704925      -16.6626644065       -6.7847651993  MEMB      113             0.0000000000
     13092       113  SAPC      H13X            5.0947853324      -16.6070576668       -7.2174127965  MEMB      113             0.0000000000
     13093       113  SAPC      H13Y            6.4508161914      -15.6276479140       -7.0113527271  MEMB      113             0.0000000000
     13094       113  SAPC      C314            6.2259681885      -16.7712172416       -5.2220108031  MEMB      113             0.0000000000
     13095       113  SAPC      H14X            7.2180719700      -17.0568416547       -4.8115605918  MEMB      113             0.0000000000
     13096       113  SAPC      H14Y            5.5520384213      -17.6285669095       -5.0096632477  MEMB      113             0.0000000000
     13097       113  SAPC      C315            5.7206172506      -15.6173367394       -4.4563044343  MEMB      113             0.0000000000
     13098       113  SAPC      H15X            6.2468231350      -14.7382971686       -4.8860931125  MEMB      113             0.0000000000
     13099       113  SAPC      H15Y            5.9775636403      -15.6658755428       -3.3765166060  MEMB      113             0.0000000000
     13100       113  SAPC      C316            4.2047474605      -15.3487732716       -4.4789308298  MEMB      113             0.0000000000
     13101       113  SAPC      H16X            3.9403872655      -15.1619090215       -5.5417173249  MEMB      113             0.0000000000
     13102       113  SAPC      H16Y            3.9374174701      -14.3687715879       -4.0289817227  MEMB      113             0.0000000000
     13103       113  SAPC      C317            3.3000961434      -16.2939659977       -3.6495005203  MEMB      113             0.0000000000
     13104       113  SAPC      H17X            3.3963922162      -17.2904639186       -4.1312047499  MEMB      113             0.0000000000
     13105       113  SAPC      H17Y            2.2345998972      -15.9820805117       -3.6074592532  MEMB      113             0.0000000000
     13106       113  SAPC      C318            3.5959184008      -16.2799551677       -2.1140244175  MEMB      113             0.0000000000
     13107       113  SAPC      H18X            4.5300563727      -16.8570985533       -1.9448700280  MEMB      113             0.0000000000
     13108       113  SAPC      H18Y            2.8343322519      -16.8904922997       -1.5834107782  MEMB      113             0.0000000000
     13109       113  SAPC      H18Z            3.5785140145      -15.2768255059       -1.6367960022  MEMB      113             0.0000000000
     13110       114  SLPC      N             -16.1876227706       -2.0405345858      -15.3640087981  MEMB      114             0.0000000000
     13111       114  SLPC      C13           -17.4206329353       -1.6199996196      -14.6190648749  MEMB      114             0.0000000000
     13112       114  SLPC      H13A          -17.3894224146       -0.5597441890      -14.4158790043  MEMB      114             0.0000000000
     13113       114  SLPC      H13B          -18.2972522231       -1.6203060380      -15.2498885083  MEMB      114             0.0000000000
     13114       114  SLPC      H13C          -17.4779758706       -2.1875499688      -13.7020051432  MEMB      114             0.0000000000
     13115       114  SLPC      C14           -16.1698167617       -3.5472722047      -15.5696247042  MEMB      114             0.0000000000
     13116       114  SLPC      H14A          -15.2582403010       -3.8968253653      -16.0314047060  MEMB      114             0.0000000000
     13117       114  SLPC      H14B          -16.2690359851       -4.1327022883      -14.6675009497  MEMB      114             0.0000000000
     13118       114  SLPC      H14C          -16.9691731648       -3.7615465744      -16.2635382218  MEMB      114             0.0000000000
     13119       114  SLPC      C15           -14.9445391258       -1.7298835535      -14.5580871514  MEMB      114             0.0000000000
     13120       114  SLPC      H15A          -14.6901531721       -0.6846152953      -14.4626822702  MEMB      114             0.0000000000
     13121       114  SLPC      H15B          -15.1362189182       -2.1023635280      -13.5626388231  MEMB      114             0.0000000000
     13122       114  SLPC      H15C          -14.1219418883       -2.3150426640      -14.9419137963  MEMB      114             0.0000000000
     13123       114  SLPC      C12           -16.0959071128       -1.3992839639      -16.7347141368  MEMB      114             0.0000000000
     13124       114  SLPC      H12A          -15.3429478035       -1.9805979047      -17.2461104886  MEMB      114             0.0000000000
     13125       114  SLPC      H12B          -15.6479752602       -0.4167082504      -16.7173451322  MEMB      114             0.0000000000
     13126       114  SLPC      C11           -17.3503739246       -1.3339972553      -17.6336578037  MEMB      114             0.0000000000
     13127       114  SLPC      H11A          -17.0989590380       -0.9237474956      -18.6350601084  MEMB      114             0.0000000000
     13128       114  SLPC      H11B          -17.9823764638       -0.5449812503      -17.1728459917  MEMB      114             0.0000000000
     13129       114  SLPC      P             -19.4370985425       -2.5123984610      -18.5522664774  MEMB      114             0.0000000000
     13130       114  SLPC      O13           -19.4402320265       -1.4023028543      -19.6025970424  MEMB      114             0.0000000000
     13131       114  SLPC      O14           -19.6117095689       -3.8835813990      -19.1489096718  MEMB      114             0.0000000000
     13132       114  SLPC      O12           -18.0601049825       -2.5114787114      -17.7734071638  MEMB      114             0.0000000000
     13133       114  SLPC      O11           -20.4965796453       -2.1426810376      -17.4436621423  MEMB      114             0.0000000000
     13134       114  SLPC      C1            -21.8572234500       -2.0427728910      -17.7397786930  MEMB      114             0.0000000000
     13135       114  SLPC      HA            -22.0551083147       -1.0181974948      -18.1211027350  MEMB      114             0.0000000000
     13136       114  SLPC      HB            -22.1375234343       -2.7718702180      -18.5298229274  MEMB      114             0.0000000000
     13137       114  SLPC      C2            -22.7141117620       -2.1041132431      -16.4618124978  MEMB      114             0.0000000000
     13138       114  SLPC      HS            -23.6150947849       -1.4839976332      -16.6567674643  MEMB      114             0.0000000000
     13139       114  SLPC      O21           -21.8993602325       -1.7565717944      -15.2477133216  MEMB      114             0.0000000000
     13140       114  SLPC      C21           -21.9360993374       -0.4440915404      -15.0800133730  MEMB      114             0.0000000000
     13141       114  SLPC      O22           -22.6014150692        0.3884690106      -15.7202876989  MEMB      114             0.0000000000
     13142       114  SLPC      C22           -21.0076018370       -0.1463888473      -13.8939030671  MEMB      114             0.0000000000
     13143       114  SLPC      H2R           -21.5274935986       -0.6663032681      -13.0610027426  MEMB      114             0.0000000000
     13144       114  SLPC      H2S           -20.0227645375       -0.6212350566      -14.0912287502  MEMB      114             0.0000000000
     13145       114  SLPC      C3            -23.2901744482       -3.5852546575      -16.3310043464  MEMB      114             0.0000000000
     13146       114  SLPC      HX            -24.1537159309       -3.7832400517      -17.0013913124  MEMB      114             0.0000000000
     13147       114  SLPC      HY            -23.8053531150       -3.6990104421      -15.3532663975  MEMB      114             0.0000000000
     13148       114  SLPC      O31           -22.2193686794       -4.4489731284      -16.5547809259  MEMB      114             0.0000000000
     13149       114  SLPC      C31           -21.7732936871       -5.2365585582      -15.5609730677  MEMB      114             0.0000000000
     13150       114  SLPC      O32           -22.3805598354       -5.5289934343      -14.5171484732  MEMB      114             0.0000000000
     13151       114  SLPC      C32           -20.3822379941       -5.8646063931      -15.8931291683  MEMB      114             0.0000000000
     13152       114  SLPC      H2X           -19.8514298277       -5.0333608045      -16.4045920013  MEMB      114             0.0000000000
     13153       114  SLPC      H2Y           -20.5290057376       -6.7387518899      -16.5629422157  MEMB      114             0.0000000000
     13154       114  SLPC      C23           -20.7180720725        1.4303486572      -13.7894007998  MEMB      114             0.0000000000
     13155       114  SLPC      H3R           -21.4957941612        2.0844724119      -14.2383897193  MEMB      114             0.0000000000
     13156       114  SLPC      H3S           -19.9281958088        1.5774249403      -14.5567238683  MEMB      114             0.0000000000
     13157       114  SLPC      C24           -20.2660344780        1.8599313439      -12.4306733936  MEMB      114             0.0000000000
     13158       114  SLPC      H4R           -20.1136196901        2.9562690584      -12.5262460771  MEMB      114             0.0000000000
     13159       114  SLPC      H4S           -19.3299947607        1.2957649647      -12.2310061916  MEMB      114             0.0000000000
     13160       114  SLPC      C25           -21.2338649281        1.5375700678      -11.2493841587  MEMB      114             0.0000000000
     13161       114  SLPC      H5R           -21.2722692349        0.4318119153      -11.1486621853  MEMB      114             0.0000000000
     13162       114  SLPC      H5S           -22.2425397583        1.9018890787      -11.5395012186  MEMB      114             0.0000000000
     13163       114  SLPC      C26           -20.8814330138        2.2837384910       -9.9716352197  MEMB      114             0.0000000000
     13164       114  SLPC      H6R           -20.9712250405        3.3880629488      -10.0536441693  MEMB      114             0.0000000000
     13165       114  SLPC      H6S           -19.8369622872        2.0611279629       -9.6652915775  MEMB      114             0.0000000000
     13166       114  SLPC      C27           -21.8700333789        1.8835855307       -8.8372518062  MEMB      114             0.0000000000
     13167       114  SLPC      H7R           -22.9403854177        2.0899322058       -9.0519341542  MEMB      114             0.0000000000
     13168       114  SLPC      H7S           -21.5951896647        2.6206287082       -8.0526829449  MEMB      114             0.0000000000
     13169       114  SLPC      C28           -21.6964018986        0.5141671803       -8.3067321378  MEMB      114             0.0000000000
     13170       114  SLPC      H8R           -20.6856053711        0.0726789460       -8.4397710215  MEMB      114             0.0000000000
     13171       114  SLPC      H8S           -22.3196300519       -0.1855520091       -8.9036415420  MEMB      114             0.0000000000
     13172       114  SLPC      C29           -21.9724435293        0.3957469660       -6.8260465156  MEMB      114             0.0000000000
     13173       114  SLPC      H9R           -22.0691077201        1.3796308242       -6.3437315983  MEMB      114             0.0000000000
     13174       114  SLPC      C210          -22.1039170866       -0.7193390613       -6.1011330673  MEMB      114             0.0000000000
     13175       114  SLPC      H10R          -22.3038232311       -0.7269838246       -5.0194775197  MEMB      114             0.0000000000
     13176       114  SLPC      C211          -22.0345389346       -2.1014731948       -6.6871463538  MEMB      114             0.0000000000
     13177       114  SLPC      H11R          -20.9665944764       -2.3915769499       -6.7854091457  MEMB      114             0.0000000000
     13178       114  SLPC      H11S          -22.3630505354       -2.0677538431       -7.7479309732  MEMB      114             0.0000000000
     13179       114  SLPC      C212          -22.8696970733       -3.1757994008       -6.0669796342  MEMB      114             0.0000000000
     13180       114  SLPC      H12R          -23.7946002317       -3.4845316865       -6.5761343858  MEMB      114             0.0000000000
     13181       114  SLPC      C213          -22.6449519619       -3.7348791978       -4.8818239377  MEMB      114             0.0000000000
     13182       114  SLPC      H13R          -23.4125782974       -4.4187720917       -4.4906197176  MEMB      114             0.0000000000
     13183       114  SLPC      C214          -21.5710203848       -3.4416127677       -3.8696717242  MEMB      114             0.0000000000
     13184       114  SLPC      H14R          -22.0184404971       -2.8712204984       -3.0277748667  MEMB      114             0.0000000000
     13185       114  SLPC      H14S          -20.7539775001       -2.8126245587       -4.2833574672  MEMB      114             0.0000000000
     13186       114  SLPC      C215          -21.0122285699       -4.7431802328       -3.1785371444  MEMB      114             0.0000000000
     13187       114  SLPC      H15R          -20.5707553570       -5.4499015766       -3.9133619495  MEMB      114             0.0000000000
     13188       114  SLPC      H15S          -21.7975412518       -5.3488797470       -2.6778048315  MEMB      114             0.0000000000
     13189       114  SLPC      C216          -19.9138780447       -4.4996467929       -2.1335846364  MEMB      114             0.0000000000
     13190       114  SLPC      H16R          -19.5110621998       -5.4303065441       -1.6797868196  MEMB      114             0.0000000000
     13191       114  SLPC      H16S          -20.2991898450       -3.8710977979       -1.3024513235  MEMB      114             0.0000000000
     13192       114  SLPC      C217          -18.7549492666       -3.6582732655       -2.6991475298  MEMB      114             0.0000000000
     13193       114  SLPC      H17R          -19.1251800382       -2.6107766737       -2.6981827181  MEMB      114             0.0000000000
     13194       114  SLPC      H17S          -18.6009905210       -4.0527224932       -3.7262929461  MEMB      114             0.0000000000
     13195       114  SLPC      C218          -17.5449783765       -3.8392648688       -1.7980684318  MEMB      114             0.0000000000
     13196       114  SLPC      H18R          -16.5241527338       -3.8060002202       -2.2352515204  MEMB      114             0.0000000000
     13197       114  SLPC      H18S          -17.6787579388       -4.8482548201       -1.3526886754  MEMB      114             0.0000000000
     13198       114  SLPC      H18T          -17.5121483348       -3.1091421476       -0.9613105049  MEMB      114             0.0000000000
     13199       114  SLPC      C33           -19.5765243455       -6.3390831645      -14.6277234101  MEMB      114             0.0000000000
     13200       114  SLPC      H3X           -18.6119329461       -6.7961204242      -14.9359462846  MEMB      114             0.0000000000
     13201       114  SLPC      H3Y           -20.1069496023       -7.0311857342      -13.9392727052  MEMB      114             0.0000000000
     13202       114  SLPC      C34           -19.1886520010       -5.2411917665      -13.6029034899  MEMB      114             0.0000000000
     13203       114  SLPC      H4X           -20.1538343194       -4.8266284518      -13.2411281542  MEMB      114             0.0000000000
     13204       114  SLPC      H4Y           -18.4631215770       -4.5020398195      -14.0048749893  MEMB      114             0.0000000000
     13205       114  SLPC      C35           -18.4443206488       -5.7683552436      -12.3209975053  MEMB      114             0.0000000000
     13206       114  SLPC      H5X           -17.5203500951       -6.2468682008      -12.7103879023  MEMB      114             0.0000000000
     13207       114  SLPC      H5Y           -19.1056692239       -6.5113420466      -11.8261142112  MEMB      114             0.0000000000
     13208       114  SLPC      C36           -17.9546861402       -4.6930302975      -11.2931464004  MEMB      114             0.0000000000
     13209       114  SLPC      H6X           -17.3993547980       -4.0207251247      -11.9815749880  MEMB      114             0.0000000000
     13210       114  SLPC      H6Y           -17.3011039206       -5.2169936323      -10.5633429434  MEMB      114             0.0000000000
     13211       114  SLPC      C37           -19.0655101164       -3.8848866041      -10.5070979282  MEMB      114             0.0000000000
     13212       114  SLPC      H7X           -19.6730801954       -4.6521852232       -9.9813295687  MEMB      114             0.0000000000
     13213       114  SLPC      H7Y           -19.5399523907       -3.3631441742      -11.3655910972  MEMB      114             0.0000000000
     13214       114  SLPC      C38           -18.6014803939       -2.6960743120       -9.5992510926  MEMB      114             0.0000000000
     13215       114  SLPC      H8X           -19.5651692491       -2.2054813671       -9.3444114512  MEMB      114             0.0000000000
     13216       114  SLPC      H8Y           -18.0853887733       -1.9270836037      -10.2129477118  MEMB      114             0.0000000000
     13217       114  SLPC      C39           -17.8969421260       -3.1129942675       -8.2429930873  MEMB      114             0.0000000000
     13218       114  SLPC      H9X           -17.1699361549       -3.9345929958       -8.4183737461  MEMB      114             0.0000000000
     13219       114  SLPC      H9Y           -18.7680039857       -3.5445184685       -7.7050723779  MEMB      114             0.0000000000
     13220       114  SLPC      C310          -17.0584015079       -2.0347325391       -7.5834169786  MEMB      114             0.0000000000
     13221       114  SLPC      H10X          -16.4703509809       -1.4758762690       -8.3424936068  MEMB      114             0.0000000000
     13222       114  SLPC      H10Y          -16.3835727019       -2.5324423449       -6.8545736916  MEMB      114             0.0000000000
     13223       114  SLPC      C311          -17.8430952189       -0.9922408997       -6.7065051718  MEMB      114             0.0000000000
     13224       114  SLPC      H11X          -18.3920922589       -1.7122368379       -6.0626652002  MEMB      114             0.0000000000
     13225       114  SLPC      H11Y          -18.5186547149       -0.3462417712       -7.3070259105  MEMB      114             0.0000000000
     13226       114  SLPC      C312          -16.8792243610       -0.1158328974       -5.8127711718  MEMB      114             0.0000000000
     13227       114  SLPC      H12X          -16.1821343151        0.5299438688       -6.3884088555  MEMB      114             0.0000000000
     13228       114  SLPC      H12Y          -16.1727085509       -0.7859567115       -5.2778965543  MEMB      114             0.0000000000
     13229       114  SLPC      C313          -17.6483042608        0.9014462293       -4.9327084191  MEMB      114             0.0000000000
     13230       114  SLPC      H13X          -18.3298875284        1.5381659948       -5.5363251910  MEMB      114             0.0000000000
     13231       114  SLPC      H13Y          -16.9691378873        1.5892129690       -4.3849576545  MEMB      114             0.0000000000
     13232       114  SLPC      C314          -18.6002253487        0.2072446193       -3.9772899726  MEMB      114             0.0000000000
     13233       114  SLPC      H14X          -17.9546054404       -0.5138256872       -3.4318051437  MEMB      114             0.0000000000
     13234       114  SLPC      H14Y          -19.3509806612       -0.4816589219       -4.4201213752  MEMB      114             0.0000000000
     13235       114  SLPC      C315          -19.4489097729        1.0545888469       -3.0091824560  MEMB      114             0.0000000000
     13236       114  SLPC      H15X          -19.9081222721        1.9604501524       -3.4595822013  MEMB      114             0.0000000000
     13237       114  SLPC      H15Y          -18.6944768689        1.4381549596       -2.2894400348  MEMB      114             0.0000000000
     13238       114  SLPC      C316          -20.3985730374        0.2401568872       -2.2373274922  MEMB      114             0.0000000000
     13239       114  SLPC      H16X          -19.9029753160       -0.7267442437       -2.0053659565  MEMB      114             0.0000000000
     13240       114  SLPC      H16Y          -21.2464508225       -0.0547114961       -2.8919087344  MEMB      114             0.0000000000
     13241       114  SLPC      C317          -20.8416400480        0.9048853283       -0.9417696063  MEMB      114             0.0000000000
     13242       114  SLPC      H17X          -21.5285499132        1.7284066445       -1.2320943301  MEMB      114             0.0000000000
     13243       114  SLPC      H17Y          -20.0069018594        1.2696941333       -0.3058072418  MEMB      114             0.0000000000
     13244       114  SLPC      C318          -21.8440122566       -0.0457744634       -0.1972690679  MEMB      114             0.0000000000
     13245       114  SLPC      H18X          -22.5810088929       -0.5239404781       -0.8773517133  MEMB      114             0.0000000000
     13246       114  SLPC      H18Y          -22.5147176850        0.6466773094        0.3549877148  MEMB      114             0.0000000000
     13247       114  SLPC      H18Z          -21.3924471468       -0.6980924193        0.5804787926  MEMB      114             0.0000000000
     13248       115  SAPS      N              16.5382925653       -1.5560586680      -20.9578201868  MEMB      115             0.0000000000
     13249       115  SAPS      HN1            17.2823893866       -1.9697226495      -21.5551492230  MEMB      115             0.0000000000
     13250       115  SAPS      HN2            15.6540515743       -2.1032208999      -20.9760340279  MEMB      115             0.0000000000
     13251       115  SAPS      HN3            16.3041058435       -0.6262277875      -21.3605250056  MEMB      115             0.0000000000
     13252       115  SAPS      C12            16.9971749045       -1.4317633305      -19.6101120903  MEMB      115             0.0000000000
     13253       115  SAPS      H12A           16.5540910790       -0.5377395060      -19.1968349937  MEMB      115             0.0000000000
     13254       115  SAPS      C13            16.7156451303       -2.5403656754      -18.6569502668  MEMB      115             0.0000000000
     13255       115  SAPS      O13A           16.2027146342       -3.5908662970      -19.1862949084  MEMB      115             0.0000000000
     13256       115  SAPS      O13B           17.2793618326       -2.5400981349      -17.5020508161  MEMB      115             0.0000000000
     13257       115  SAPS      C11            18.5505974117       -1.2316666452      -19.7574743085  MEMB      115             0.0000000000
     13258       115  SAPS      H11A           19.0682109660       -2.0789672967      -20.2559508267  MEMB      115             0.0000000000
     13259       115  SAPS      H11B           19.0565513033       -1.0161153226      -18.7921405566  MEMB      115             0.0000000000
     13260       115  SAPS      P              20.3532722738        0.2337861827      -20.9472731590  MEMB      115             0.0000000000
     13261       115  SAPS      O13            20.6366187872       -0.4523528510      -22.2232756659  MEMB      115             0.0000000000
     13262       115  SAPS      O14            20.5506011259        1.6876060013      -20.8989017196  MEMB      115             0.0000000000
     13263       115  SAPS      O12            18.7836647178       -0.0956185064      -20.5110203996  MEMB      115             0.0000000000
     13264       115  SAPS      O11            21.0497851859       -0.4378655919      -19.7488264380  MEMB      115             0.0000000000
     13265       115  SAPS      C1             22.0056887769        0.2130405066      -18.9528968767  MEMB      115             0.0000000000
     13266       115  SAPS      HA             22.9507890859       -0.3705484584      -18.9759171344  MEMB      115             0.0000000000
     13267       115  SAPS      HB             22.3140006170        1.2037979236      -19.3499670203  MEMB      115             0.0000000000
     13268       115  SAPS      C2             21.6537473225        0.2115738488      -17.4498812086  MEMB      115             0.0000000000
     13269       115  SAPS      HS             22.6394727862        0.3232674275      -16.9496906498  MEMB      115             0.0000000000
     13270       115  SAPS      O21            21.0738826563       -0.9883599875      -17.0649675142  MEMB      115             0.0000000000
     13271       115  SAPS      C21            21.8304642091       -2.0665403626      -16.9055905165  MEMB      115             0.0000000000
     13272       115  SAPS      O22            22.9440461100       -2.1516847181      -17.2369210573  MEMB      115             0.0000000000
     13273       115  SAPS      C22            20.8929923025       -3.2546029126      -16.4942934885  MEMB      115             0.0000000000
     13274       115  SAPS      H2R            19.8670705971       -2.8872280477      -16.7107215869  MEMB      115             0.0000000000
     13275       115  SAPS      H2S            21.0668841951       -4.1462789241      -17.1338219201  MEMB      115             0.0000000000
     13276       115  SAPS      C3             20.7406508918        1.3171047133      -16.9795985988  MEMB      115             0.0000000000
     13277       115  SAPS      HX             19.9393324255        1.5710424948      -17.7060458014  MEMB      115             0.0000000000
     13278       115  SAPS      HY             21.4557873981        2.1668255333      -17.0091758584  MEMB      115             0.0000000000
     13279       115  SAPS      O31            20.2567174210        0.9548360926      -15.6899215319  MEMB      115             0.0000000000
     13280       115  SAPS      C31            21.0493408098        1.4003670213      -14.6157461349  MEMB      115             0.0000000000
     13281       115  SAPS      O32            22.1820829385        1.8088004723      -14.7903839906  MEMB      115             0.0000000000
     13282       115  SAPS      C32            20.3346257812        1.2955884404      -13.2436604859  MEMB      115             0.0000000000
     13283       115  SAPS      H2X            19.3246864960        1.7085439266      -13.4529717575  MEMB      115             0.0000000000
     13284       115  SAPS      H2Y            20.6442763011        2.0904318751      -12.5318588033  MEMB      115             0.0000000000
     13285       115  SAPS      C23            21.2909305630       -3.7078206363      -15.1396681500  MEMB      115             0.0000000000
     13286       115  SAPS      H3R            21.3088899892       -2.8831561211      -14.3954051700  MEMB      115             0.0000000000
     13287       115  SAPS      H3S            22.3686610922       -3.9776577309      -15.1421341598  MEMB      115             0.0000000000
     13288       115  SAPS      C24            20.4673164650       -4.9630690361      -14.7347309818  MEMB      115             0.0000000000
     13289       115  SAPS      H4R            21.0677553752       -5.4978555560      -13.9680516602  MEMB      115             0.0000000000
     13290       115  SAPS      H4S            20.5211257265       -5.7497913670      -15.5173508637  MEMB      115             0.0000000000
     13291       115  SAPS      C25            19.0048411643       -4.6398960009      -14.3800800554  MEMB      115             0.0000000000
     13292       115  SAPS      H5R            18.5695038968       -3.9389402351      -15.1075014357  MEMB      115             0.0000000000
     13293       115  SAPS      C26            18.2250251878       -4.9512691183      -13.3569607143  MEMB      115             0.0000000000
     13294       115  SAPS      H6R            17.1930922698       -4.5794212105      -13.4396865644  MEMB      115             0.0000000000
     13295       115  SAPS      C27            18.4787824492       -5.8279736504      -12.1303755197  MEMB      115             0.0000000000
     13296       115  SAPS      H7R            19.3095258801       -6.4771318396      -12.4807748516  MEMB      115             0.0000000000
     13297       115  SAPS      H7S            17.7315476955       -6.6358188927      -11.9775778376  MEMB      115             0.0000000000
     13298       115  SAPS      C28            18.8583100289       -5.1085800911      -10.8218857887  MEMB      115             0.0000000000
     13299       115  SAPS      H8R            19.7248251608       -4.4352436665      -10.8978446100  MEMB      115             0.0000000000
     13300       115  SAPS      C29            18.2186454670       -5.2337787223       -9.6672737073  MEMB      115             0.0000000000
     13301       115  SAPS      H9R            18.6481703076       -4.6188982700       -8.8626425596  MEMB      115             0.0000000000
     13302       115  SAPS      C210           17.0661521904       -6.1327634277       -9.2741913909  MEMB      115             0.0000000000
     13303       115  SAPS      H10R           17.4538937822       -7.0682881117       -8.8172771608  MEMB      115             0.0000000000
     13304       115  SAPS      H10S           16.5455322559       -6.5112992112      -10.1797225820  MEMB      115             0.0000000000
     13305       115  SAPS      C211           16.0290332318       -5.5084972033       -8.3094857161  MEMB      115             0.0000000000
     13306       115  SAPS      H11R           14.9790910290       -5.3695241917       -8.6066523589  MEMB      115             0.0000000000
     13307       115  SAPS      C212           16.2656033956       -5.0414006571       -7.0443179907  MEMB      115             0.0000000000
     13308       115  SAPS      H12R           15.3552157912       -4.7133266165       -6.5212863972  MEMB      115             0.0000000000
     13309       115  SAPS      C213           17.5603246989       -4.9716353062       -6.2626544373  MEMB      115             0.0000000000
     13310       115  SAPS      H13R           18.3097734567       -5.6920789013       -6.6545832370  MEMB      115             0.0000000000
     13311       115  SAPS      H13S           17.2514651294       -5.4295520059       -5.2986843955  MEMB      115             0.0000000000
     13312       115  SAPS      C214           18.2663982753       -3.6725008976       -6.2088849051  MEMB      115             0.0000000000
     13313       115  SAPS      H14R           18.8263698898       -3.3617132631       -7.1032239604  MEMB      115             0.0000000000
     13314       115  SAPS      C215           18.2144807651       -2.7658123595       -5.1914854039  MEMB      115             0.0000000000
     13315       115  SAPS      H15R           18.6731888550       -1.7776056679       -5.3432576775  MEMB      115             0.0000000000
     13316       115  SAPS      C216           17.4398791346       -3.0546847819       -3.9803887126  MEMB      115             0.0000000000
     13317       115  SAPS      H16R           16.6614644508       -3.8308107638       -4.1416962028  MEMB      115             0.0000000000
     13318       115  SAPS      H16S           16.7826252191       -2.1868346066       -3.7586356088  MEMB      115             0.0000000000
     13319       115  SAPS      C217           18.3300502591       -3.5382433131       -2.8160705148  MEMB      115             0.0000000000
     13320       115  SAPS      H17R           17.7068894675       -3.7549243875       -1.9221796242  MEMB      115             0.0000000000
     13321       115  SAPS      H17S           19.0458755364       -2.7318127029       -2.5485168383  MEMB      115             0.0000000000
     13322       115  SAPS      C218           19.2154852639       -4.7724073920       -3.1046299481  MEMB      115             0.0000000000
     13323       115  SAPS      H18R           19.9440642549       -4.5974261265       -3.9249196878  MEMB      115             0.0000000000
     13324       115  SAPS      H18S           18.5127351837       -5.5962112355       -3.3532472543  MEMB      115             0.0000000000
     13325       115  SAPS      C219           20.0154608609       -5.1507630569       -1.8835365439  MEMB      115             0.0000000000
     13326       115  SAPS      H19R           20.3948717357       -4.3027058338       -1.2743014547  MEMB      115             0.0000000000
     13327       115  SAPS      H19S           20.8637081269       -5.7048106912       -2.3394191551  MEMB      115             0.0000000000
     13328       115  SAPS      C220           19.2415540837       -6.0076532850       -0.9383787182  MEMB      115             0.0000000000
     13329       115  SAPS      H20R           19.9004653846       -6.5404014762       -0.2198149283  MEMB      115             0.0000000000
     13330       115  SAPS      H20S           18.5845071145       -6.7460477288       -1.4457099865  MEMB      115             0.0000000000
     13331       115  SAPS      H20T           18.5304797056       -5.4629532528       -0.2811153243  MEMB      115             0.0000000000
     13332       115  SAPS      C33            20.2815986359       -0.1560971551      -12.7347935269  MEMB      115             0.0000000000
     13333       115  SAPS      H3X            19.9311564992       -0.1709165305      -11.6806151534  MEMB      115             0.0000000000
     13334       115  SAPS      H3Y            21.3414881159       -0.4680083204      -12.6178882996  MEMB      115             0.0000000000
     13335       115  SAPS      C34            19.3734626447       -1.0839136620      -13.5275534988  MEMB      115             0.0000000000
     13336       115  SAPS      H4X            19.5965281027       -2.1061466856      -13.1539198109  MEMB      115             0.0000000000
     13337       115  SAPS      H4Y            19.7042544975       -1.1110947310      -14.5878172997  MEMB      115             0.0000000000
     13338       115  SAPS      C35            17.8840403457       -0.8690809269      -13.4642025042  MEMB      115             0.0000000000
     13339       115  SAPS      H5X            17.5328988656       -1.7558733989      -14.0339567036  MEMB      115             0.0000000000
     13340       115  SAPS      H5Y            17.7636610147        0.1271416836      -13.9410363040  MEMB      115             0.0000000000
     13341       115  SAPS      C36            17.2804233718       -0.7182237015      -12.0649150546  MEMB      115             0.0000000000
     13342       115  SAPS      H6X            16.1824722950       -0.5487555365      -12.0751676234  MEMB      115             0.0000000000
     13343       115  SAPS      H6Y            17.7103357034        0.1838172260      -11.5793032901  MEMB      115             0.0000000000
     13344       115  SAPS      C37            17.4299704023       -1.9011988584      -11.0671567499  MEMB      115             0.0000000000
     13345       115  SAPS      H7X            18.3519716758       -2.5010418747      -11.2234353042  MEMB      115             0.0000000000
     13346       115  SAPS      H7Y            16.6299710591       -2.6389853738      -11.2907480218  MEMB      115             0.0000000000
     13347       115  SAPS      C38            17.1979098989       -1.3983310408       -9.5464910701  MEMB      115             0.0000000000
     13348       115  SAPS      H8X            18.1970498903       -1.0907199891       -9.1704385066  MEMB      115             0.0000000000
     13349       115  SAPS      H8Y            16.8946349436       -2.2713105261       -8.9298461770  MEMB      115             0.0000000000
     13350       115  SAPS      C39            16.1223257816       -0.3351931700       -9.4353720519  MEMB      115             0.0000000000
     13351       115  SAPS      H9X            15.1120516795       -0.5342320109       -9.8525656629  MEMB      115             0.0000000000
     13352       115  SAPS      H9Y            16.4055828905        0.6676125307       -9.8206854989  MEMB      115             0.0000000000
     13353       115  SAPS      C310           15.8278551725       -0.0892528240       -8.0385416508  MEMB      115             0.0000000000
     13354       115  SAPS      H10X           15.2557837564       -0.9814343948       -7.7052729660  MEMB      115             0.0000000000
     13355       115  SAPS      H10Y           15.0197332461        0.6725698106       -8.0087761210  MEMB      115             0.0000000000
     13356       115  SAPS      C311           16.9884242592        0.5094833632       -7.1932331496  MEMB      115             0.0000000000
     13357       115  SAPS      H11X           17.4114060089        1.3609230697       -7.7680882359  MEMB      115             0.0000000000
     13358       115  SAPS      H11Y           17.7584138355       -0.2830847042       -7.0780255204  MEMB      115             0.0000000000
     13359       115  SAPS      C312           16.6277398662        1.1423540577       -5.8317262279  MEMB      115             0.0000000000
     13360       115  SAPS      H12X           15.8985099698        0.4407041179       -5.3732158435  MEMB      115             0.0000000000
     13361       115  SAPS      H12Y           16.1821702698        2.0866666321       -6.2112819507  MEMB      115             0.0000000000
     13362       115  SAPS      C313           17.8106306033        1.5211794342       -4.8974233119  MEMB      115             0.0000000000
     13363       115  SAPS      H13X           17.6717288102        2.5896317073       -4.6264319411  MEMB      115             0.0000000000
     13364       115  SAPS      H13Y           18.7265919684        1.2993568472       -5.4857524612  MEMB      115             0.0000000000
     13365       115  SAPS      C314           17.9750131795        0.7736649490       -3.6220135394  MEMB      115             0.0000000000
     13366       115  SAPS      H14X           18.9844007407        1.0170218563       -3.2267479495  MEMB      115             0.0000000000
     13367       115  SAPS      H14Y           17.9933150340       -0.3254713223       -3.7829029619  MEMB      115             0.0000000000
     13368       115  SAPS      C315           16.9201175557        1.0933852343       -2.4972364368  MEMB      115             0.0000000000
     13369       115  SAPS      H15X           15.9130035086        0.7252118122       -2.7879084084  MEMB      115             0.0000000000
     13370       115  SAPS      H15Y           16.9767936426        2.2026873298       -2.4736247108  MEMB      115             0.0000000000
     13371       115  SAPS      C316           17.2994200255        0.5102245509       -1.1221404034  MEMB      115             0.0000000000
     13372       115  SAPS      H16X           17.2031291690       -0.5957217738       -1.1660916347  MEMB      115             0.0000000000
     13373       115  SAPS      H16Y           16.4898780259        0.8212347260       -0.4277079283  MEMB      115             0.0000000000
     13374       115  SAPS      C317           18.6751675392        0.9121426314       -0.6502148339  MEMB      115             0.0000000000
     13375       115  SAPS      H17X           19.0341484281        1.8549253013       -1.1156341226  MEMB      115             0.0000000000
     13376       115  SAPS      H17Y           19.2999949298        0.0578423371       -0.9879765018  MEMB      115             0.0000000000
     13377       115  SAPS      C318           19.0624541869        0.7615959164        0.8809744929  MEMB      115             0.0000000000
     13378       115  SAPS      H18X           20.1445941595        0.5327908645        0.9855793478  MEMB      115             0.0000000000
     13379       115  SAPS      H18Y           18.4815518968       -0.0879492815        1.2994804376  MEMB      115             0.0000000000
     13380       115  SAPS      H18Z           18.7836981963        1.7354937535        1.3371975777  MEMB      115             0.0000000000
     13381       116  SOPE      N              15.1801788496       12.5549167454      -19.7995283691  MEMB      116             0.0000000000
     13382       116  SOPE      HN1            15.5515939543       12.4470923480      -20.7649426620  MEMB      116             0.0000000000
     13383       116  SOPE      HN2            14.7832730932       13.5146652021      -19.7452274855  MEMB      116             0.0000000000
     13384       116  SOPE      HN3            15.9348138501       12.5118179773      -19.0851972467  MEMB      116             0.0000000000
     13385       116  SOPE      C12            14.0687564201       11.5046258982      -19.6319154645  MEMB      116             0.0000000000
     13386       116  SOPE      H12A           13.6630721838       11.5615825389      -18.5992019902  MEMB      116             0.0000000000
     13387       116  SOPE      H12B           14.6871500106       10.5831073525      -19.6840100828  MEMB      116             0.0000000000
     13388       116  SOPE      C11            12.9550858627       11.5623687746      -20.6798195138  MEMB      116             0.0000000000
     13389       116  SOPE      H11A           12.2429438450       10.7111071828      -20.6295351209  MEMB      116             0.0000000000
     13390       116  SOPE      H11B           13.3788384598       11.4902006159      -21.7042932519  MEMB      116             0.0000000000
     13391       116  SOPE      P              12.1895227207       13.9773785561      -21.6596102461  MEMB      116             0.0000000000
     13392       116  SOPE      O13            11.6520131834       13.4004962770      -22.9253682961  MEMB      116             0.0000000000
     13393       116  SOPE      O14            13.4669989535       14.7393904398      -21.7350434854  MEMB      116             0.0000000000
     13394       116  SOPE      O12            12.2672189444       12.8191514671      -20.5946644533  MEMB      116             0.0000000000
     13395       116  SOPE      O11            11.0911722660       14.8856214417      -20.9740501577  MEMB      116             0.0000000000
     13396       116  SOPE      C1             10.0476563349       14.3672485212      -20.1159257101  MEMB      116             0.0000000000
     13397       116  SOPE      HA              9.9394354470       13.2654139512      -20.2084996380  MEMB      116             0.0000000000
     13398       116  SOPE      HB              9.0201868385       14.7024761064      -20.3733154610  MEMB      116             0.0000000000
     13399       116  SOPE      C2             10.2284092137       14.8052517973      -18.5999587162  MEMB      116             0.0000000000
     13400       116  SOPE      HS              9.9140988674       15.8524200713      -18.4025544137  MEMB      116             0.0000000000
     13401       116  SOPE      O21            11.5912782524       14.6080093581      -18.2107524946  MEMB      116             0.0000000000
     13402       116  SOPE      C21            12.4193965481       15.6414988306      -18.1581890975  MEMB      116             0.0000000000
     13403       116  SOPE      O22            12.2473515925       16.8239601631      -18.4514953875  MEMB      116             0.0000000000
     13404       116  SOPE      C22            13.8403963525       15.1485317684      -17.7520024454  MEMB      116             0.0000000000
     13405       116  SOPE      H2R            14.4580316798       16.0209260934      -17.4490571783  MEMB      116             0.0000000000
     13406       116  SOPE      H2S            14.3282060420       14.5935726393      -18.5816908054  MEMB      116             0.0000000000
     13407       116  SOPE      C3              9.3758555226       13.8365679184      -17.7035836635  MEMB      116             0.0000000000
     13408       116  SOPE      HX              8.3095760830       13.9540315454      -17.9926713827  MEMB      116             0.0000000000
     13409       116  SOPE      HY              9.3955383534       14.1925794511      -16.6513530058  MEMB      116             0.0000000000
     13410       116  SOPE      O31             9.8498108322       12.5210475476      -17.8501097835  MEMB      116             0.0000000000
     13411       116  SOPE      C31            10.6701151679       11.9352438444      -16.9399159894  MEMB      116             0.0000000000
     13412       116  SOPE      O32            11.1246313003       12.4343765507      -15.9558049270  MEMB      116             0.0000000000
     13413       116  SOPE      C32            10.8463451522       10.4793036098      -17.4431152799  MEMB      116             0.0000000000
     13414       116  SOPE      H2X            11.2152241547       10.6093281541      -18.4829915893  MEMB      116             0.0000000000
     13415       116  SOPE      H2Y             9.8144694668       10.0736547976      -17.5138443418  MEMB      116             0.0000000000
     13416       116  SOPE      C23            13.7352464804       14.2263834631      -16.4926286820  MEMB      116             0.0000000000
     13417       116  SOPE      H3R            13.5182740736       13.1960981245      -16.8472498919  MEMB      116             0.0000000000
     13418       116  SOPE      H3S            12.8587480746       14.4856517561      -15.8610816084  MEMB      116             0.0000000000
     13419       116  SOPE      C24            15.0407782643       14.1261829455      -15.6661864568  MEMB      116             0.0000000000
     13420       116  SOPE      H4R            15.7233858987       13.8204420169      -16.4877033612  MEMB      116             0.0000000000
     13421       116  SOPE      H4S            15.3856198973       15.1361540972      -15.3573763224  MEMB      116             0.0000000000
     13422       116  SOPE      C25            14.9972465465       13.2765729078      -14.4746888406  MEMB      116             0.0000000000
     13423       116  SOPE      H5R            14.0213936782       13.5472363121      -14.0177717739  MEMB      116             0.0000000000
     13424       116  SOPE      H5S            15.0197655482       12.1973523660      -14.7375518392  MEMB      116             0.0000000000
     13425       116  SOPE      C26            16.0218699121       13.5388511830      -13.3399170278  MEMB      116             0.0000000000
     13426       116  SOPE      H6R            15.6331556066       12.8582501715      -12.5525136988  MEMB      116             0.0000000000
     13427       116  SOPE      H6S            17.0263800263       13.0939575182      -13.5052969712  MEMB      116             0.0000000000
     13428       116  SOPE      C27            16.1713337775       14.9710741213      -12.8036288697  MEMB      116             0.0000000000
     13429       116  SOPE      H7R            17.1695824835       15.3183680092      -13.1459849900  MEMB      116             0.0000000000
     13430       116  SOPE      H7S            15.3308004318       15.5439205923      -13.2504750466  MEMB      116             0.0000000000
     13431       116  SOPE      C28            16.1513736508       15.0138950417      -11.2685243370  MEMB      116             0.0000000000
     13432       116  SOPE      H8R            16.3108705111       16.0991927885      -11.0924266301  MEMB      116             0.0000000000
     13433       116  SOPE      H8S            15.1107333314       14.8148099116      -10.9342289912  MEMB      116             0.0000000000
     13434       116  SOPE      C29            17.1772438337       14.1703390317      -10.5724287714  MEMB      116             0.0000000000
     13435       116  SOPE      H91            18.0605026799       14.1079765560      -11.2250880418  MEMB      116             0.0000000000
     13436       116  SOPE      C210           17.0802179301       13.4762734267       -9.4239408333  MEMB      116             0.0000000000
     13437       116  SOPE      H101           17.9839071716       12.9447617390       -9.0910125955  MEMB      116             0.0000000000
     13438       116  SOPE      C211           15.9017023291       13.2960159177       -8.4987552974  MEMB      116             0.0000000000
     13439       116  SOPE      H11R           16.1517278191       12.3911397342       -7.9046112725  MEMB      116             0.0000000000
     13440       116  SOPE      H11S           14.9075511933       13.2138398100       -8.9878685679  MEMB      116             0.0000000000
     13441       116  SOPE      C212           15.9433182031       14.4890589540       -7.5708296626  MEMB      116             0.0000000000
     13442       116  SOPE      H12R           15.9739219180       15.4969126559       -8.0373221800  MEMB      116             0.0000000000
     13443       116  SOPE      H12S           16.8072277991       14.3760211567       -6.8814798634  MEMB      116             0.0000000000
     13444       116  SOPE      C213           14.6374173939       14.5393943313       -6.7675228642  MEMB      116             0.0000000000
     13445       116  SOPE      H13R           14.5423130397       13.7315533085       -6.0107738489  MEMB      116             0.0000000000
     13446       116  SOPE      H13S           13.7815661261       14.4747322947       -7.4729713270  MEMB      116             0.0000000000
     13447       116  SOPE      C214           14.4820315457       15.8132605946       -5.9776739927  MEMB      116             0.0000000000
     13448       116  SOPE      H14R           14.3469847660       16.6641660619       -6.6791318510  MEMB      116             0.0000000000
     13449       116  SOPE      H14S           15.3841655089       16.0959141790       -5.3940798907  MEMB      116             0.0000000000
     13450       116  SOPE      C215           13.4140405141       15.6713897047       -4.8650932719  MEMB      116             0.0000000000
     13451       116  SOPE      H15R           13.5414023199       14.6956643804       -4.3492836085  MEMB      116             0.0000000000
     13452       116  SOPE      H15S           12.4333551779       15.6362835379       -5.3860013784  MEMB      116             0.0000000000
     13453       116  SOPE      C216           13.3224577262       16.8208329352       -3.8125453109  MEMB      116             0.0000000000
     13454       116  SOPE      H16R           12.2974081383       16.7935245012       -3.3849359240  MEMB      116             0.0000000000
     13455       116  SOPE      H16S           13.4951640919       17.7776643546       -4.3501004813  MEMB      116             0.0000000000
     13456       116  SOPE      C217           14.4069878296       16.6546262265       -2.7055544587  MEMB      116             0.0000000000
     13457       116  SOPE      H17R           14.6337378685       15.5692953486       -2.6351136581  MEMB      116             0.0000000000
     13458       116  SOPE      H17S           14.0351852446       16.8834466174       -1.6839268585  MEMB      116             0.0000000000
     13459       116  SOPE      C218           15.8374653770       17.2984452189       -2.7604252305  MEMB      116             0.0000000000
     13460       116  SOPE      H18R           15.6395091019       18.2994534543       -2.3209739625  MEMB      116             0.0000000000
     13461       116  SOPE      H18S           16.2695148782       17.4062121744       -3.7782849284  MEMB      116             0.0000000000
     13462       116  SOPE      H18T           16.5395373430       16.8699642310       -2.0135507664  MEMB      116             0.0000000000
     13463       116  SOPE      C33            11.7862976824        9.6680255342      -16.6458831852  MEMB      116             0.0000000000
     13464       116  SOPE      H3X            12.7020186463       10.2943303120      -16.5865689001  MEMB      116             0.0000000000
     13465       116  SOPE      H3Y            12.0585872073        8.7989866717      -17.2822407939  MEMB      116             0.0000000000
     13466       116  SOPE      C34            11.4206572052        9.0798219142      -15.2447799179  MEMB      116             0.0000000000
     13467       116  SOPE      H4X            10.5995996855        8.3683559463      -15.4771634831  MEMB      116             0.0000000000
     13468       116  SOPE      H4Y            10.8136480315        9.7462377473      -14.5953569715  MEMB      116             0.0000000000
     13469       116  SOPE      C35            12.5564146464        8.5941073019      -14.3696285714  MEMB      116             0.0000000000
     13470       116  SOPE      H5X            13.3045841498        8.0770637551      -15.0077741152  MEMB      116             0.0000000000
     13471       116  SOPE      H5Y            12.3443354390        7.9583440976      -13.4835427851  MEMB      116             0.0000000000
     13472       116  SOPE      C36            13.2551078670        9.7640982934      -13.6489385186  MEMB      116             0.0000000000
     13473       116  SOPE      H6X            13.3003579865       10.5431544369      -14.4397262764  MEMB      116             0.0000000000
     13474       116  SOPE      H6Y            14.2592246946        9.6401077051      -13.1899215165  MEMB      116             0.0000000000
     13475       116  SOPE      C37            12.4309910856       10.4755990031      -12.5526565825  MEMB      116             0.0000000000
     13476       116  SOPE      H7X            11.9294089528        9.6322987733      -12.0315215310  MEMB      116             0.0000000000
     13477       116  SOPE      H7Y            11.6899077341       11.1624134273      -13.0146117302  MEMB      116             0.0000000000
     13478       116  SOPE      C38            13.3482686989       11.2073530192      -11.4906897137  MEMB      116             0.0000000000
     13479       116  SOPE      H8X            12.6268478280       11.7468400755      -10.8404388022  MEMB      116             0.0000000000
     13480       116  SOPE      H8Y            13.7482819918       12.0992281886      -12.0187712493  MEMB      116             0.0000000000
     13481       116  SOPE      C39            14.2445002153       10.4099353488      -10.5889616886  MEMB      116             0.0000000000
     13482       116  SOPE      H9X            14.5599739115       11.0613740292       -9.7460944676  MEMB      116             0.0000000000
     13483       116  SOPE      H9Y            15.0972415327       10.0431376149      -11.1993817895  MEMB      116             0.0000000000
     13484       116  SOPE      C310           13.5537485570        9.2062627167      -10.0544692200  MEMB      116             0.0000000000
     13485       116  SOPE      H10X           13.3687898620        8.4120497079      -10.8090135173  MEMB      116             0.0000000000
     13486       116  SOPE      H10Y           12.6007584437        9.5613911189       -9.6072396498  MEMB      116             0.0000000000
     13487       116  SOPE      C311           14.3280616591        8.5452070900       -8.9330059185  MEMB      116             0.0000000000
     13488       116  SOPE      H11X           15.1230405228        7.9293720411       -9.4053157876  MEMB      116             0.0000000000
     13489       116  SOPE      H11Y           13.5466312840        7.8732951629       -8.5180090833  MEMB      116             0.0000000000
     13490       116  SOPE      C312           14.9164838542        9.4527529263       -7.8976482993  MEMB      116             0.0000000000
     13491       116  SOPE      H12X           14.1974376857       10.2787144422       -7.7103503356  MEMB      116             0.0000000000
     13492       116  SOPE      H12Y           15.8337592765        9.9563704769       -8.2708722949  MEMB      116             0.0000000000
     13493       116  SOPE      C313           15.3549651451        8.7619425335       -6.6158677364  MEMB      116             0.0000000000
     13494       116  SOPE      H13X           16.2245887934        8.1794492862       -6.9883958169  MEMB      116             0.0000000000
     13495       116  SOPE      H13Y           14.5314342300        8.0587213245       -6.3676787354  MEMB      116             0.0000000000
     13496       116  SOPE      C314           15.6196109341        9.7231815457       -5.4852097549  MEMB      116             0.0000000000
     13497       116  SOPE      H14X           14.8593159853       10.5318912879       -5.5327603721  MEMB      116             0.0000000000
     13498       116  SOPE      H14Y           16.5421071957       10.2110260411       -5.8664298959  MEMB      116             0.0000000000
     13499       116  SOPE      C315           15.8346319104        9.2547640737       -4.1247545752  MEMB      116             0.0000000000
     13500       116  SOPE      H15X           16.8308308223        8.8318501323       -3.8736514666  MEMB      116             0.0000000000
     13501       116  SOPE      H15Y           15.1661021437        8.4024924639       -3.8777270616  MEMB      116             0.0000000000
     13502       116  SOPE      C316           15.2161823858       10.2380507552       -3.1098757347  MEMB      116             0.0000000000
     13503       116  SOPE      H16X           15.6124548526        9.9767866440       -2.1053705628  MEMB      116             0.0000000000
     13504       116  SOPE      H16Y           14.1447501370        9.9524306872       -3.1789791973  MEMB      116             0.0000000000
     13505       116  SOPE      C317           15.5266433384       11.6943016454       -3.4337448109  MEMB      116             0.0000000000
     13506       116  SOPE      H17X           15.2027902285       12.0117661495       -4.4479717245  MEMB      116             0.0000000000
     13507       116  SOPE      H17Y           16.6076947770       11.8902605199       -3.2686733308  MEMB      116             0.0000000000
     13508       116  SOPE      C318           14.6616973675       12.5950581642       -2.4777224248  MEMB      116             0.0000000000
     13509       116  SOPE      H18X           13.6358517585       12.6605020254       -2.8992433112  MEMB      116             0.0000000000
     13510       116  SOPE      H18Y           15.0779637602       13.6249812665       -2.4950932726  MEMB      116             0.0000000000
     13511       116  SOPE      H18Z           14.6209391765       12.1133670397       -1.4774053870  MEMB      116             0.0000000000
     13512       117  OSM       N             -14.1166499747       -8.7490119777      -21.9868295021  MEMB      117             0.0000000000
     13513       117  OSM       C15           -13.1945410062       -8.1266456765      -22.8551989318  MEMB      117             0.0000000000
     13514       117  OSM       H15A          -13.0935411421       -7.0874107647      -22.5791739717  MEMB      117             0.0000000000
     13515       117  OSM       H15B          -13.6493923109       -8.0659412349      -23.8328621898  MEMB      117             0.0000000000
     13516       117  OSM       H15C          -12.3675156261       -8.8212140218      -22.8532612779  MEMB      117             0.0000000000
     13517       117  OSM       C14           -13.6984819457       -8.5519655298      -20.5179064201  MEMB      117             0.0000000000
     13518       117  OSM       H14A          -13.9106341376       -7.5259954015      -20.2556532951  MEMB      117             0.0000000000
     13519       117  OSM       H14B          -12.6479401418       -8.7926299916      -20.4483172483  MEMB      117             0.0000000000
     13520       117  OSM       H14C          -14.3408398950       -9.1683868613      -19.9065136836  MEMB      117             0.0000000000
     13521       117  OSM       C13           -15.4873124919       -8.1560758569      -22.1798484799  MEMB      117             0.0000000000
     13522       117  OSM       H13A          -15.8900197999       -8.3990728100      -23.1520517235  MEMB      117             0.0000000000
     13523       117  OSM       H13B          -15.3065434116       -7.0924265032      -22.1311406696  MEMB      117             0.0000000000
     13524       117  OSM       H13C          -16.1792205708       -8.4824996232      -21.4175422430  MEMB      117             0.0000000000
     13525       117  OSM       C12           -14.1975337469      -10.1971240237      -22.3502182900  MEMB      117             0.0000000000
     13526       117  OSM       H12A          -13.3380848417      -10.6478510441      -21.8763061995  MEMB      117             0.0000000000
     13527       117  OSM       H12B          -14.1737772511      -10.2319900872      -23.4293938225  MEMB      117             0.0000000000
     13528       117  OSM       C11           -15.4073649170      -10.9821681550      -21.8897483971  MEMB      117             0.0000000000
     13529       117  OSM       H11A          -15.1653355536      -12.0399669288      -22.1280854297  MEMB      117             0.0000000000
     13530       117  OSM       H11B          -16.2790243203      -10.6286620141      -22.4809880150  MEMB      117             0.0000000000
     13531       117  OSM       P             -17.0882851059      -10.7956056576      -19.8657825147  MEMB      117             0.0000000000
     13532       117  OSM       O13           -17.9258455907       -9.9234573076      -20.6886785502  MEMB      117             0.0000000000
     13533       117  OSM       O14           -17.3843322693      -12.2312700288      -19.7005953050  MEMB      117             0.0000000000
     13534       117  OSM       O11           -16.8775470528      -10.0602771594      -18.4786918274  MEMB      117             0.0000000000
     13535       117  OSM       O12           -15.6480840953      -10.8939592826      -20.4865017813  MEMB      117             0.0000000000
     13536       117  OSM       C1S           -15.6302417767      -10.2267928171      -17.7975569912  MEMB      117             0.0000000000
     13537       117  OSM       H1S           -14.9865098090       -9.3617034120      -18.0650461353  MEMB      117             0.0000000000
     13538       117  OSM       H1T           -15.1451335809      -11.1930149986      -18.0533021324  MEMB      117             0.0000000000
     13539       117  OSM       NF            -14.7310862232       -9.9940230862      -15.6155300916  MEMB      117             0.0000000000
     13540       117  OSM       HNF           -14.5452655169      -10.8315858644      -15.1076243995  MEMB      117             0.0000000000
     13541       117  OSM       C2S           -15.9231956803      -10.2545321822      -16.3094880301  MEMB      117             0.0000000000
     13542       117  OSM       H2S           -16.7133088956       -9.4843943517      -16.1793738911  MEMB      117             0.0000000000
     13543       117  OSM       C3S           -16.5682821053      -11.5570703899      -15.8037045325  MEMB      117             0.0000000000
     13544       117  OSM       H3S           -15.8658999942      -12.3521911169      -16.1334973513  MEMB      117             0.0000000000
     13545       117  OSM       O3            -17.8505697300      -11.8873036697      -16.4240919350  MEMB      117             0.0000000000
     13546       117  OSM       HO3           -18.1080575767      -11.1637958973      -17.0001443355  MEMB      117             0.0000000000
     13547       117  OSM       C4S           -16.7577606723      -11.5388827051      -14.2663948524  MEMB      117             0.0000000000
     13548       117  OSM       H4S           -16.1889547029      -12.3210431952      -13.7422908596  MEMB      117             0.0000000000
     13549       117  OSM       C5S           -17.4969329541      -10.7588368217      -13.4483297964  MEMB      117             0.0000000000
     13550       117  OSM       H5S           -17.9790401466       -9.8416767530      -13.8176398433  MEMB      117             0.0000000000
     13551       117  OSM       C6S           -17.6696528672      -10.7996926239      -11.8893439398  MEMB      117             0.0000000000
     13552       117  OSM       H6S           -18.6064835001      -11.3599174351      -11.6824201333  MEMB      117             0.0000000000
     13553       117  OSM       H6T           -17.8523057438       -9.8180760678      -11.4021194939  MEMB      117             0.0000000000
     13554       117  OSM       C7S           -16.5244229804      -11.6209707721      -11.1970665389  MEMB      117             0.0000000000
     13555       117  OSM       H7S           -15.5456626678      -11.2321906947      -11.5509016361  MEMB      117             0.0000000000
     13556       117  OSM       H7T           -16.6284035589      -12.6968234101      -11.4540681160  MEMB      117             0.0000000000
     13557       117  OSM       C8S           -16.6593781431      -11.7666481179       -9.7094437935  MEMB      117             0.0000000000
     13558       117  OSM       H8S           -17.7297465429      -11.6086509152       -9.4571158071  MEMB      117             0.0000000000
     13559       117  OSM       H8T           -16.2023109099      -10.9348960228       -9.1318630976  MEMB      117             0.0000000000
     13560       117  OSM       C9S           -15.8732766367      -12.9836896847       -9.0543799943  MEMB      117             0.0000000000
     13561       117  OSM       H9S           -14.7823799842      -12.8381374345       -9.2063013715  MEMB      117             0.0000000000
     13562       117  OSM       H9T           -16.1993331607      -13.8883561294       -9.6107848922  MEMB      117             0.0000000000
     13563       117  OSM       C10S          -15.9906122182      -13.1950841139       -7.5613004755  MEMB      117             0.0000000000
     13564       117  OSM       H10S          -15.4740761595      -14.1715388222       -7.4427775960  MEMB      117             0.0000000000
     13565       117  OSM       H10T          -17.0545644234      -13.3039797298       -7.2605210410  MEMB      117             0.0000000000
     13566       117  OSM       C11S          -15.5437273215      -12.1138313812       -6.5896591454  MEMB      117             0.0000000000
     13567       117  OSM       H11S          -15.6641361152      -12.5422046847       -5.5716621059  MEMB      117             0.0000000000
     13568       117  OSM       H11T          -16.2559061814      -11.2641173795       -6.6611324303  MEMB      117             0.0000000000
     13569       117  OSM       C12S          -14.0891247647      -11.7999813566       -6.8120919364  MEMB      117             0.0000000000
     13570       117  OSM       H12S          -13.9400104166      -11.1928928742       -7.7305310999  MEMB      117             0.0000000000
     13571       117  OSM       H12T          -13.4404463743      -12.6895251231       -6.9612544550  MEMB      117             0.0000000000
     13572       117  OSM       C13S          -13.6619717658      -10.9305347778       -5.6029021794  MEMB      117             0.0000000000
     13573       117  OSM       H13S          -13.1725520960      -11.6729093841       -4.9368167181  MEMB      117             0.0000000000
     13574       117  OSM       H13T          -14.5873028441      -10.4819772655       -5.1823318123  MEMB      117             0.0000000000
     13575       117  OSM       C14S          -12.6683182793       -9.7287495121       -5.7288870345  MEMB      117             0.0000000000
     13576       117  OSM       H14S          -13.0628450059       -9.0408697021       -6.5070207097  MEMB      117             0.0000000000
     13577       117  OSM       H14T          -11.6228753466      -10.0061482938       -5.9826984471  MEMB      117             0.0000000000
     13578       117  OSM       C15S          -12.6050959842       -8.8262903223       -4.4250773319  MEMB      117             0.0000000000
     13579       117  OSM       H15S          -13.6426492092       -8.5686492729       -4.1227102820  MEMB      117             0.0000000000
     13580       117  OSM       H15T          -12.0325365752       -7.9283006919       -4.7414805066  MEMB      117             0.0000000000
     13581       117  OSM       C16S          -11.8803199304       -9.5179396821       -3.1951362994  MEMB      117             0.0000000000
     13582       117  OSM       H16S          -12.4189562586      -10.4795153696       -3.0552650787  MEMB      117             0.0000000000
     13583       117  OSM       H16T          -12.1809334674       -8.8432096720       -2.3652619246  MEMB      117             0.0000000000
     13584       117  OSM       C17S          -10.3528674063       -9.7418448557       -3.4234215872  MEMB      117             0.0000000000
     13585       117  OSM       H17S           -9.8721712642       -8.8029785330       -3.7723948503  MEMB      117             0.0000000000
     13586       117  OSM       H17T          -10.3547045344      -10.4488276065       -4.2804488739  MEMB      117             0.0000000000
     13587       117  OSM       C18S           -9.5582361014      -10.2489276404       -2.2079186127  MEMB      117             0.0000000000
     13588       117  OSM       H18S           -9.6775324202      -11.3442606125       -2.0653186743  MEMB      117             0.0000000000
     13589       117  OSM       H18T           -9.7240088166       -9.5630414471       -1.3497795160  MEMB      117             0.0000000000
     13590       117  OSM       H18U           -8.4857527531      -10.0701461339       -2.4362548200  MEMB      117             0.0000000000
     13591       117  OSM       C1F           -14.0885059583       -8.8183218972      -15.6570500600  MEMB      117             0.0000000000
     13592       117  OSM       OF            -14.3665157447       -7.8917997147      -16.4091381623  MEMB      117             0.0000000000
     13593       117  OSM       C2F           -12.9175089811       -8.8511236839      -14.6919747847  MEMB      117             0.0000000000
     13594       117  OSM       H2F           -12.1855910089       -9.6098538983      -15.0426105849  MEMB      117             0.0000000000
     13595       117  OSM       H2G           -13.3340034673       -9.3014877031      -13.7656780877  MEMB      117             0.0000000000
     13596       117  OSM       C3F           -12.3102624981       -7.5198425707      -14.3683873328  MEMB      117             0.0000000000
     13597       117  OSM       H3F           -13.1455647416       -6.9062182914      -13.9683167667  MEMB      117             0.0000000000
     13598       117  OSM       H3G           -11.9696414973       -7.0863544109      -15.3329529113  MEMB      117             0.0000000000
     13599       117  OSM       C4F           -11.1434214067       -7.5348735085      -13.3273389366  MEMB      117             0.0000000000
     13600       117  OSM       H4F           -10.8365475654       -6.4840188266      -13.1379879229  MEMB      117             0.0000000000
     13601       117  OSM       H4G           -10.2374785005       -7.9375801237      -13.8287528726  MEMB      117             0.0000000000
     13602       117  OSM       C5F           -11.4433857249       -8.2813189333      -12.0299782213  MEMB      117             0.0000000000
     13603       117  OSM       H5F           -10.7945767950       -7.7249495971      -11.3201754274  MEMB      117             0.0000000000
     13604       117  OSM       H5G           -11.2872481859       -9.3786661367      -12.1059465035  MEMB      117             0.0000000000
     13605       117  OSM       C6F           -12.9193536645       -8.0809615397      -11.4466583488  MEMB      117             0.0000000000
     13606       117  OSM       H6F           -13.5993824625       -8.7722538426      -11.9888735114  MEMB      117             0.0000000000
     13607       117  OSM       H6G           -13.2741363071       -7.0365977189      -11.5799037481  MEMB      117             0.0000000000
     13608       117  OSM       C7F           -12.9774309847       -8.4411912070       -9.9330271276  MEMB      117             0.0000000000
     13609       117  OSM       H7F           -12.2826561724       -7.8412184689       -9.3072149518  MEMB      117             0.0000000000
     13610       117  OSM       H7G           -12.4977156418       -9.4301435689       -9.7712645476  MEMB      117             0.0000000000
     13611       117  OSM       C8F           -14.3822086546       -8.3347509417       -9.3022470201  MEMB      117             0.0000000000
     13612       117  OSM       H8F           -14.3267990153       -8.6640217361       -8.2426095515  MEMB      117             0.0000000000
     13613       117  OSM       H8G           -14.9519929870       -9.1690149787       -9.7644919717  MEMB      117             0.0000000000
     13614       117  OSM       C9F           -15.2681649194       -7.1605679603       -9.5319124082  MEMB      117             0.0000000000
     13615       117  OSM       H9F           -15.7323825868       -7.0627709842      -10.5243527793  MEMB      117             0.0000000000
     13616       117  OSM       C10F          -15.5546939492       -6.2196004965       -8.6394290285  MEMB      117             0.0000000000
     13617       117  OSM       H10F          -16.1976398213       -5.3904199810       -8.9697016084  MEMB      117             0.0000000000
     13618       117  OSM       C11F          -15.1007953416       -6.1665169904       -7.1742777875  MEMB      117             0.0000000000
     13619       117  OSM       H11F          -14.5452008989       -5.2049227907       -7.1430920440  MEMB      117             0.0000000000
     13620       117  OSM       H11G          -14.4169272622       -6.9942660382       -6.8888354875  MEMB      117             0.0000000000
     13621       117  OSM       C12F          -16.3496150157       -6.2115685986       -6.1960784881  MEMB      117             0.0000000000
     13622       117  OSM       H12F          -17.0448693182       -5.3829524167       -6.4497255906  MEMB      117             0.0000000000
     13623       117  OSM       H12G          -15.9160944658       -6.0243963913       -5.1904206472  MEMB      117             0.0000000000
     13624       117  OSM       C13F          -17.0998144901       -7.5467622056       -6.1894227373  MEMB      117             0.0000000000
     13625       117  OSM       H13F          -16.3933857963       -8.3459598802       -5.8786777279  MEMB      117             0.0000000000
     13626       117  OSM       H13G          -17.7612648912       -7.7506050510       -7.0584757746  MEMB      117             0.0000000000
     13627       117  OSM       C14F          -18.1373606068       -7.6811810726       -5.1092703868  MEMB      117             0.0000000000
     13628       117  OSM       H14F          -19.1476908278       -7.3495761488       -5.4311283682  MEMB      117             0.0000000000
     13629       117  OSM       H14G          -17.7403074017       -7.0439731810       -4.2903474527  MEMB      117             0.0000000000
     13630       117  OSM       C15F          -18.2659718007       -9.0877306741       -4.5170055712  MEMB      117             0.0000000000
     13631       117  OSM       H15F          -18.2087961119       -9.6731097914       -5.4595463429  MEMB      117             0.0000000000
     13632       117  OSM       H15G          -19.2357010766       -9.1932083356       -3.9851969482  MEMB      117             0.0000000000
     13633       117  OSM       C16F          -17.1552318640       -9.3837732051       -3.4659467473  MEMB      117             0.0000000000
     13634       117  OSM       H16F          -17.2490191842       -8.4903326580       -2.8122734951  MEMB      117             0.0000000000
     13635       117  OSM       H16G          -16.1708222016       -9.3827033617       -3.9809791020  MEMB      117             0.0000000000
     13636       117  OSM       C17F          -17.3685800302      -10.6102282169       -2.5951208738  MEMB      117             0.0000000000
     13637       117  OSM       H17F          -17.5440655227      -11.4778322886       -3.2665276385  MEMB      117             0.0000000000
     13638       117  OSM       H17G          -18.2827181732      -10.4918291333       -1.9749146127  MEMB      117             0.0000000000
     13639       117  OSM       C18F          -16.2253944628      -11.0294091841       -1.6777903374  MEMB      117             0.0000000000
     13640       117  OSM       H18F          -15.9539566187      -10.1716482250       -1.0259559365  MEMB      117             0.0000000000
     13641       117  OSM       H18G          -15.3135107453      -11.2170086499       -2.2840863012  MEMB      117             0.0000000000
     13642       117  OSM       H18H          -16.5728011913      -11.9089719955       -1.0946966583  MEMB      117             0.0000000000
     13643       118  OSM       N             -16.8981534669       12.1566938618      -22.4191118542  MEMB      118             0.0000000000
     13644       118  OSM       C15           -16.4839071113       11.7185496289      -23.7641071281  MEMB      118             0.0000000000
     13645       118  OSM       H15A          -17.1125520164       12.2613809284      -24.4544256851  MEMB      118             0.0000000000
     13646       118  OSM       H15B          -16.8860512103       10.7262378274      -23.9055191209  MEMB      118             0.0000000000
     13647       118  OSM       H15C          -15.4245631872       11.8637836465      -23.9160856263  MEMB      118             0.0000000000
     13648       118  OSM       C14           -16.3282490486       13.5366608127      -22.2170581341  MEMB      118             0.0000000000
     13649       118  OSM       H14A          -16.4547293144       14.1456126283      -23.0999967480  MEMB      118             0.0000000000
     13650       118  OSM       H14B          -15.2776578666       13.3543060264      -22.0455787744  MEMB      118             0.0000000000
     13651       118  OSM       H14C          -16.8317443937       13.9507870382      -21.3560169485  MEMB      118             0.0000000000
     13652       118  OSM       C13           -18.4077272203       12.2012817145      -22.2731080988  MEMB      118             0.0000000000
     13653       118  OSM       H13A          -18.8740907472       12.9619017896      -22.8816821514  MEMB      118             0.0000000000
     13654       118  OSM       H13B          -18.8043610381       12.4579042449      -21.3019096945  MEMB      118             0.0000000000
     13655       118  OSM       H13C          -18.7983720258       11.2577482038      -22.6245923264  MEMB      118             0.0000000000
     13656       118  OSM       C12           -16.5002780977       11.1863731968      -21.2784562425  MEMB      118             0.0000000000
     13657       118  OSM       H12A          -16.9899332979       10.2386024053      -21.4468854647  MEMB      118             0.0000000000
     13658       118  OSM       H12B          -16.8292182642       11.5785663233      -20.3274656859  MEMB      118             0.0000000000
     13659       118  OSM       C11           -15.0285518891       10.7599778098      -21.1675757800  MEMB      118             0.0000000000
     13660       118  OSM       H11A          -14.7196273828       10.1187530182      -22.0206393329  MEMB      118             0.0000000000
     13661       118  OSM       H11B          -15.0908965598       10.0273436958      -20.3347003638  MEMB      118             0.0000000000
     13662       118  OSM       P             -13.4917112273       12.1198588245      -19.5582579732  MEMB      118             0.0000000000
     13663       118  OSM       O13           -12.7316312574       10.9971143600      -19.0128443926  MEMB      118             0.0000000000
     13664       118  OSM       O14           -12.9499233324       13.4761777424      -19.6181184677  MEMB      118             0.0000000000
     13665       118  OSM       O11           -14.8288589549       12.0886535680      -18.7276554488  MEMB      118             0.0000000000
     13666       118  OSM       O12           -14.0937736978       11.7726922837      -20.9637064843  MEMB      118             0.0000000000
     13667       118  OSM       C1S           -15.4143169574       13.2225739162      -17.9960466002  MEMB      118             0.0000000000
     13668       118  OSM       H1S           -16.1765676662       13.6104916726      -18.7051409385  MEMB      118             0.0000000000
     13669       118  OSM       H1T           -14.6768236522       14.0132621973      -17.7406319615  MEMB      118             0.0000000000
     13670       118  OSM       NF            -14.9094207216       12.7661407775      -15.5638508054  MEMB      118             0.0000000000
     13671       118  OSM       HNF           -14.6295883864       11.8159048865      -15.4509142252  MEMB      118             0.0000000000
     13672       118  OSM       C2S           -16.0480555539       12.9075289121      -16.5436654126  MEMB      118             0.0000000000
     13673       118  OSM       H2S           -16.7191792381       13.7465168185      -16.2607993495  MEMB      118             0.0000000000
     13674       118  OSM       C3S           -16.8406433970       11.6109260097      -16.5855374118  MEMB      118             0.0000000000
     13675       118  OSM       H3S           -16.0896188965       10.7922297537      -16.5899754147  MEMB      118             0.0000000000
     13676       118  OSM       O3            -17.6985427299       11.5280058268      -17.6842814347  MEMB      118             0.0000000000
     13677       118  OSM       HO3           -17.6544882114       12.3806195714      -18.1232675495  MEMB      118             0.0000000000
     13678       118  OSM       C4S           -17.5911401948       11.4359657285      -15.2581407665  MEMB      118             0.0000000000
     13679       118  OSM       H4S           -17.1674422276       10.6486405200      -14.6173609185  MEMB      118             0.0000000000
     13680       118  OSM       C5S           -18.6982314177       12.0600225300      -14.7782317544  MEMB      118             0.0000000000
     13681       118  OSM       H5S           -19.1115637613       12.8126226918      -15.4657998493  MEMB      118             0.0000000000
     13682       118  OSM       C6S           -19.3979195036       11.8224587239      -13.4548653173  MEMB      118             0.0000000000
     13683       118  OSM       H6S           -20.2431976315       11.1093832304      -13.5613970710  MEMB      118             0.0000000000
     13684       118  OSM       H6T           -19.8576095938       12.8079186472      -13.2271050327  MEMB      118             0.0000000000
     13685       118  OSM       C7S           -18.5659079663       11.2595376831      -12.2780198781  MEMB      118             0.0000000000
     13686       118  OSM       H7S           -18.1902081618       10.2739394863      -12.6269705378  MEMB      118             0.0000000000
     13687       118  OSM       H7T           -19.2753282508       11.1240760277      -11.4338076356  MEMB      118             0.0000000000
     13688       118  OSM       C8S           -17.2795418493       12.0892335603      -11.8997439970  MEMB      118             0.0000000000
     13689       118  OSM       H8S           -17.6000411088       13.1114291859      -11.6052656073  MEMB      118             0.0000000000
     13690       118  OSM       H8T           -16.6438564796       12.0706765192      -12.8107215729  MEMB      118             0.0000000000
     13691       118  OSM       C9S           -16.5613576839       11.5823332978      -10.6423884508  MEMB      118             0.0000000000
     13692       118  OSM       H9S           -16.1600316097       10.6622376261      -11.1184992379  MEMB      118             0.0000000000
     13693       118  OSM       H9T           -17.3381722564       11.4261901956       -9.8636073150  MEMB      118             0.0000000000
     13694       118  OSM       C10S          -15.4954119298       12.5999444533      -10.1174333007  MEMB      118             0.0000000000
     13695       118  OSM       H10S          -14.8889501060       12.8808999688      -11.0048947630  MEMB      118             0.0000000000
     13696       118  OSM       H10T          -14.8699368667       12.0721727700       -9.3660619295  MEMB      118             0.0000000000
     13697       118  OSM       C11S          -16.0236335697       13.8858853066       -9.5191049090  MEMB      118             0.0000000000
     13698       118  OSM       H11S          -16.5768061280       13.5706167393       -8.6086501712  MEMB      118             0.0000000000
     13699       118  OSM       H11T          -16.8786570895       14.2912489166      -10.1012864539  MEMB      118             0.0000000000
     13700       118  OSM       C12S          -14.9973027047       15.0521498846       -9.1580887723  MEMB      118             0.0000000000
     13701       118  OSM       H12S          -15.5838916255       15.7048142466       -8.4767198510  MEMB      118             0.0000000000
     13702       118  OSM       H12T          -14.5637819221       15.6269890833      -10.0042216888  MEMB      118             0.0000000000
     13703       118  OSM       C13S          -13.7461364383       14.6311341757       -8.4442960174  MEMB      118             0.0000000000
     13704       118  OSM       H13S          -13.2257392786       15.5160001742       -8.0194203954  MEMB      118             0.0000000000
     13705       118  OSM       H13T          -13.1212652519       14.0699661018       -9.1715840826  MEMB      118             0.0000000000
     13706       118  OSM       C14S          -13.7969744422       13.7828069355       -7.1068978615  MEMB      118             0.0000000000
     13707       118  OSM       H14S          -12.7593451071       13.6284214798       -6.7410950857  MEMB      118             0.0000000000
     13708       118  OSM       H14T          -14.2284851636       12.7602970503       -7.1578198829  MEMB      118             0.0000000000
     13709       118  OSM       C15S          -14.5864781973       14.4685002095       -5.9445613869  MEMB      118             0.0000000000
     13710       118  OSM       H15S          -15.6345431911       14.1755554947       -6.1683117714  MEMB      118             0.0000000000
     13711       118  OSM       H15T          -14.4978738349       15.5759397588       -5.9514982212  MEMB      118             0.0000000000
     13712       118  OSM       C16S          -14.0867992673       13.8739471285       -4.5860549502  MEMB      118             0.0000000000
     13713       118  OSM       H16S          -13.1134871777       14.2199611370       -4.1770814418  MEMB      118             0.0000000000
     13714       118  OSM       H16T          -13.8761490321       12.8127067555       -4.8384750398  MEMB      118             0.0000000000
     13715       118  OSM       C17S          -15.1649120497       14.2130109398       -3.4485129946  MEMB      118             0.0000000000
     13716       118  OSM       H17S          -16.1405872074       13.7804360845       -3.7571522447  MEMB      118             0.0000000000
     13717       118  OSM       H17T          -15.1715400009       15.3184117882       -3.3373105865  MEMB      118             0.0000000000
     13718       118  OSM       C18S          -14.7406157309       13.5193108567       -2.0948857303  MEMB      118             0.0000000000
     13719       118  OSM       H18S          -15.5914084812       13.7012136092       -1.4039559349  MEMB      118             0.0000000000
     13720       118  OSM       H18T          -13.7975899930       13.9250320687       -1.6701339829  MEMB      118             0.0000000000
     13721       118  OSM       H18U          -14.6022613535       12.4215152266       -2.1950028680  MEMB      118             0.0000000000
     13722       118  OSM       C1F           -14.1258288051       13.7042897087      -15.0315241468  MEMB      118             0.0000000000
     13723       118  OSM       OF            -14.4826569789       14.8694181461      -15.0257185633  MEMB      118             0.0000000000
     13724       118  OSM       C2F           -12.7852904806       13.3438165020      -14.4919132776  MEMB      118             0.0000000000
     13725       118  OSM       H2F           -12.1248447681       14.2324739746      -14.4001505924  MEMB      118             0.0000000000
     13726       118  OSM       H2G           -12.3763053909       12.5217909547      -15.1174739781  MEMB      118             0.0000000000
     13727       118  OSM       C3F           -12.8968818154       12.7430743307      -13.0575309294  MEMB      118             0.0000000000
     13728       118  OSM       H3F           -13.7528621869       12.0348467760      -13.0632164846  MEMB      118             0.0000000000
     13729       118  OSM       H3G           -13.0123985342       13.5979797960      -12.3574493168  MEMB      118             0.0000000000
     13730       118  OSM       C4F           -11.5115878880       12.1316679672      -12.5807436885  MEMB      118             0.0000000000
     13731       118  OSM       H4F           -10.8206292090       13.0016603396      -12.5839408625  MEMB      118             0.0000000000
     13732       118  OSM       H4G           -11.1406921910       11.4731077603      -13.3950266875  MEMB      118             0.0000000000
     13733       118  OSM       C5F           -11.4365600016       11.4454442530      -11.2062109416  MEMB      118             0.0000000000
     13734       118  OSM       H5F           -11.5563567859       12.1376286103      -10.3454842915  MEMB      118             0.0000000000
     13735       118  OSM       H5G           -10.4270027441       10.9882450823      -11.1282068305  MEMB      118             0.0000000000
     13736       118  OSM       C6F           -12.4544237813       10.2697616537      -10.9344165471  MEMB      118             0.0000000000
     13737       118  OSM       H6F           -12.1927720265        9.4942215180      -11.6856792909  MEMB      118             0.0000000000
     13738       118  OSM       H6G           -13.4846297887       10.5181577732      -11.2680265514  MEMB      118             0.0000000000
     13739       118  OSM       C7F           -12.4880100955        9.5744539230       -9.5385631047  MEMB      118             0.0000000000
     13740       118  OSM       H7F           -12.6797591417       10.1950752830       -8.6372405406  MEMB      118             0.0000000000
     13741       118  OSM       H7G           -11.4658480595        9.1841567221       -9.3457583251  MEMB      118             0.0000000000
     13742       118  OSM       C8F           -13.3762230749        8.3512861926       -9.4909144069  MEMB      118             0.0000000000
     13743       118  OSM       H8F           -13.1207505844        7.6518727717       -8.6663677137  MEMB      118             0.0000000000
     13744       118  OSM       H8G           -13.2924475306        7.7022395727      -10.3887113475  MEMB      118             0.0000000000
     13745       118  OSM       C9F           -14.8323610561        8.8068765185       -9.2929921215  MEMB      118             0.0000000000
     13746       118  OSM       H9F           -15.2789952970        9.2252323960      -10.2070466775  MEMB      118             0.0000000000
     13747       118  OSM       C10F          -15.5822037345        8.8793873076       -8.2096580331  MEMB      118             0.0000000000
     13748       118  OSM       H10F          -16.6240667403        9.2085412308       -8.3368553757  MEMB      118             0.0000000000
     13749       118  OSM       C11F          -15.2005336602        8.5464771794       -6.8273015689  MEMB      118             0.0000000000
     13750       118  OSM       H11F          -14.9848680246        9.4788771628       -6.2629971099  MEMB      118             0.0000000000
     13751       118  OSM       H11G          -14.1697056459        8.1390488710       -6.9029114153  MEMB      118             0.0000000000
     13752       118  OSM       C12F          -16.1276715731        7.5930147139       -6.0751627859  MEMB      118             0.0000000000
     13753       118  OSM       H12F          -15.6302178362        7.5436404188       -5.0829824020  MEMB      118             0.0000000000
     13754       118  OSM       H12G          -16.0084317638        6.6076328940       -6.5742880873  MEMB      118             0.0000000000
     13755       118  OSM       C13F          -17.6156226926        7.7931147116       -5.9327514675  MEMB      118             0.0000000000
     13756       118  OSM       H13F          -17.9713591767        6.9320489942       -5.3274924026  MEMB      118             0.0000000000
     13757       118  OSM       H13G          -17.9781384174        7.6436870268       -6.9722577533  MEMB      118             0.0000000000
     13758       118  OSM       C14F          -18.1527949784        9.1002333087       -5.4504784747  MEMB      118             0.0000000000
     13759       118  OSM       H14F          -19.2000151096        8.9956221985       -5.0945185521  MEMB      118             0.0000000000
     13760       118  OSM       H14G          -18.1838289020        9.8882301885       -6.2330504088  MEMB      118             0.0000000000
     13761       118  OSM       C15F          -17.5376446201        9.7750210833       -4.2093111038  MEMB      118             0.0000000000
     13762       118  OSM       H15F          -16.4828922615       10.0243547640       -4.4535475141  MEMB      118             0.0000000000
     13763       118  OSM       H15G          -17.7760977244        9.1330803189       -3.3344547107  MEMB      118             0.0000000000
     13764       118  OSM       C16F          -18.1092300064       11.2125800857       -3.8698412602  MEMB      118             0.0000000000
     13765       118  OSM       H16F          -19.2025689537       11.2119847295       -4.0671505469  MEMB      118             0.0000000000
     13766       118  OSM       H16G          -17.7448499388       12.0220922712       -4.5378519337  MEMB      118             0.0000000000
     13767       118  OSM       C17F          -17.7484860827       11.5622632560       -2.4073803554  MEMB      118             0.0000000000
     13768       118  OSM       H17F          -16.6386229438       11.5522420718       -2.3581412351  MEMB      118             0.0000000000
     13769       118  OSM       H17G          -18.0745326812       10.7590486397       -1.7124996798  MEMB      118             0.0000000000
     13770       118  OSM       C18F          -18.2793909749       12.8908370534       -1.9771566048  MEMB      118             0.0000000000
     13771       118  OSM       H18F          -17.8439803835       13.6945667047       -2.6086283836  MEMB      118             0.0000000000
     13772       118  OSM       H18G          -18.1184914352       13.0750056055       -0.8934066426  MEMB      118             0.0000000000
     13773       118  OSM       H18H          -19.3840824426       13.0027811409       -2.0151838705  MEMB      118             0.0000000000
     13774       119  SAPS      N              -5.4209089331      -17.4728488843      -20.7190572130  MEMB      119             0.0000000000
     13775       119  SAPS      HN1            -4.7774012032      -17.9483615976      -21.3834257720  MEMB      119             0.0000000000
     13776       119  SAPS      HN2            -6.1732254970      -16.9970973666      -21.2569051802  MEMB      119             0.0000000000
     13777       119  SAPS      HN3            -4.8410824680      -16.8168025845      -20.1578044887  MEMB      119             0.0000000000
     13778       119  SAPS      C12            -5.9396793607      -18.4306362046      -19.6974800239  MEMB      119             0.0000000000
     13779       119  SAPS      H12A           -5.0330302338      -18.5991193533      -19.1353405248  MEMB      119             0.0000000000
     13780       119  SAPS      C13            -7.0447329017      -17.7947046015      -18.8611546793  MEMB      119             0.0000000000
     13781       119  SAPS      O13A           -7.3527321550      -16.5746800328      -19.0749832263  MEMB      119             0.0000000000
     13782       119  SAPS      O13B           -7.6283576181      -18.5296497737      -18.0469016028  MEMB      119             0.0000000000
     13783       119  SAPS      C11            -6.3593321616      -19.7212762169      -20.3967165720  MEMB      119             0.0000000000
     13784       119  SAPS      H11A           -7.1901560463      -19.5173316496      -21.1055602447  MEMB      119             0.0000000000
     13785       119  SAPS      H11B           -6.7834711460      -20.4894534514      -19.7152983752  MEMB      119             0.0000000000
     13786       119  SAPS      P              -4.2536285652      -21.1487267114      -20.6519510893  MEMB      119             0.0000000000
     13787       119  SAPS      O13            -3.7427350961      -21.9811061279      -21.7712559737  MEMB      119             0.0000000000
     13788       119  SAPS      O14            -3.2956676423      -20.2487805779      -19.9489650049  MEMB      119             0.0000000000
     13789       119  SAPS      O12            -5.3811835728      -20.3647397431      -21.3037467916  MEMB      119             0.0000000000
     13790       119  SAPS      O11            -4.9879484233      -21.9221968263      -19.5277878461  MEMB      119             0.0000000000
     13791       119  SAPS      C1             -5.9073924889      -23.0102151341      -19.7274694984  MEMB      119             0.0000000000
     13792       119  SAPS      HA             -6.6275699700      -22.7995040808      -20.5467778799  MEMB      119             0.0000000000
     13793       119  SAPS      HB             -5.3080317123      -23.8537544740      -20.1318567315  MEMB      119             0.0000000000
     13794       119  SAPS      C2             -6.6219749503      -23.6565285477      -18.5588610508  MEMB      119             0.0000000000
     13795       119  SAPS      HS             -7.1163424699      -24.5488113289      -18.9990349577  MEMB      119             0.0000000000
     13796       119  SAPS      O21            -7.5193871674      -22.6962738150      -18.0131779394  MEMB      119             0.0000000000
     13797       119  SAPS      C21            -8.5340978005      -23.1145494670      -17.2634766007  MEMB      119             0.0000000000
     13798       119  SAPS      O22            -8.7621415100      -24.2764158845      -16.9958947294  MEMB      119             0.0000000000
     13799       119  SAPS      C22            -9.3676744206      -21.9270105838      -16.7234021886  MEMB      119             0.0000000000
     13800       119  SAPS      H2R            -8.8897264146      -20.9377564459      -16.8885173096  MEMB      119             0.0000000000
     13801       119  SAPS      H2S           -10.2743093492      -21.8289383542      -17.3580008507  MEMB      119             0.0000000000
     13802       119  SAPS      C3             -5.6870458000      -24.1627518784      -17.4557619726  MEMB      119             0.0000000000
     13803       119  SAPS      HX             -5.1471227808      -25.0462696923      -17.8585031564  MEMB      119             0.0000000000
     13804       119  SAPS      HY             -6.3648642346      -24.4897562719      -16.6384793490  MEMB      119             0.0000000000
     13805       119  SAPS      O31            -4.6444424853      -23.1667516079      -17.0883565956  MEMB      119             0.0000000000
     13806       119  SAPS      C31            -4.9366591175      -22.6314517401      -15.8911613688  MEMB      119             0.0000000000
     13807       119  SAPS      O32            -5.6994439738      -23.0815527112      -15.0482218654  MEMB      119             0.0000000000
     13808       119  SAPS      C32            -4.0002967431      -21.4734475977      -15.7008502761  MEMB      119             0.0000000000
     13809       119  SAPS      H2X            -3.8609303815      -20.9740187947      -16.6834331525  MEMB      119             0.0000000000
     13810       119  SAPS      H2Y            -3.0373348607      -21.8540611215      -15.2981605856  MEMB      119             0.0000000000
     13811       119  SAPS      C23            -9.6530500442      -22.0190933526      -15.2598293526  MEMB      119             0.0000000000
     13812       119  SAPS      H3R            -8.6823117539      -22.3149472993      -14.8076583383  MEMB      119             0.0000000000
     13813       119  SAPS      H3S           -10.3508393039      -22.8617650727      -15.0666575488  MEMB      119             0.0000000000
     13814       119  SAPS      C24           -10.3301005063      -20.8141826624      -14.5959559386  MEMB      119             0.0000000000
     13815       119  SAPS      H4R           -10.5358947266      -21.0476642587      -13.5294399268  MEMB      119             0.0000000000
     13816       119  SAPS      H4S           -11.3448786982      -20.6679221180      -15.0239207839  MEMB      119             0.0000000000
     13817       119  SAPS      C25            -9.4569042258      -19.5566638502      -14.7058553267  MEMB      119             0.0000000000
     13818       119  SAPS      H5R            -9.6873193280      -18.9394411782      -15.5867324311  MEMB      119             0.0000000000
     13819       119  SAPS      C26            -8.4717946790      -19.1520915399      -13.9168891081  MEMB      119             0.0000000000
     13820       119  SAPS      H6R            -7.9897223518      -18.1901463802      -14.1455104719  MEMB      119             0.0000000000
     13821       119  SAPS      C27            -7.9310654106      -19.7728841921      -12.5786517940  MEMB      119             0.0000000000
     13822       119  SAPS      H7R            -6.8370512338      -19.9502030262      -12.6561901299  MEMB      119             0.0000000000
     13823       119  SAPS      H7S            -8.3164847364      -20.7935817439      -12.3690103282  MEMB      119             0.0000000000
     13824       119  SAPS      C28            -8.1809662130      -18.8551624340      -11.3995380797  MEMB      119             0.0000000000
     13825       119  SAPS      H8R            -7.7326311808      -17.8538269899      -11.4790551949  MEMB      119             0.0000000000
     13826       119  SAPS      C29            -8.9038277674      -19.1052379694      -10.2640074882  MEMB      119             0.0000000000
     13827       119  SAPS      H9R            -8.8903263035      -18.3392246523       -9.4746782261  MEMB      119             0.0000000000
     13828       119  SAPS      C210           -9.7017691933      -20.3442283691       -9.8243397486  MEMB      119             0.0000000000
     13829       119  SAPS      H10R           -9.9802949444      -20.8757656931      -10.7593329378  MEMB      119             0.0000000000
     13830       119  SAPS      H10S          -10.7125432008      -19.9924568030       -9.5261568055  MEMB      119             0.0000000000
     13831       119  SAPS      C211           -9.1018147862      -21.3251643101       -8.8275909065  MEMB      119             0.0000000000
     13832       119  SAPS      H11R           -8.0184040751      -21.4931732248       -8.9170011024  MEMB      119             0.0000000000
     13833       119  SAPS      C212           -9.7719722031      -22.1114132043       -7.9185303063  MEMB      119             0.0000000000
     13834       119  SAPS      H12R           -9.1232151266      -22.7165553102       -7.2682094020  MEMB      119             0.0000000000
     13835       119  SAPS      C213          -11.2220255787      -22.2129451762       -7.6386147534  MEMB      119             0.0000000000
     13836       119  SAPS      H13R          -11.6213579914      -22.7240766497       -8.5406120903  MEMB      119             0.0000000000
     13837       119  SAPS      H13S          -11.6697160769      -21.1994953588       -7.5560704978  MEMB      119             0.0000000000
     13838       119  SAPS      C214          -11.6538117969      -22.8454583044       -6.3335816390  MEMB      119             0.0000000000
     13839       119  SAPS      H14R          -12.2652775221      -23.7556685067       -6.4209126543  MEMB      119             0.0000000000
     13840       119  SAPS      C215          -11.4731584831      -22.3419258458       -5.1309883170  MEMB      119             0.0000000000
     13841       119  SAPS      H15R          -11.9967672723      -22.8613757684       -4.3148960214  MEMB      119             0.0000000000
     13842       119  SAPS      C216          -10.8421890573      -21.0689625674       -4.7467053679  MEMB      119             0.0000000000
     13843       119  SAPS      H16R          -11.6185841406      -20.5311455825       -4.1616551039  MEMB      119             0.0000000000
     13844       119  SAPS      H16S          -10.5157508660      -20.4132396278       -5.5820414911  MEMB      119             0.0000000000
     13845       119  SAPS      C217           -9.6625890951      -21.2127224227       -3.7390158433  MEMB      119             0.0000000000
     13846       119  SAPS      H17R           -9.9595977919      -21.6629256793       -2.7677145164  MEMB      119             0.0000000000
     13847       119  SAPS      H17S           -9.2302978442      -20.2219884766       -3.4823220451  MEMB      119             0.0000000000
     13848       119  SAPS      C218           -8.5016268297      -22.0142122659       -4.2828523389  MEMB      119             0.0000000000
     13849       119  SAPS      H18R           -7.5820713330      -21.7735413744       -3.7076867576  MEMB      119             0.0000000000
     13850       119  SAPS      H18S           -8.2904602930      -21.5969545963       -5.2906345967  MEMB      119             0.0000000000
     13851       119  SAPS      C219           -8.5269485988      -23.6261218750       -4.1715488048  MEMB      119             0.0000000000
     13852       119  SAPS      H19R           -7.4797391108      -23.9844558061       -4.0752672734  MEMB      119             0.0000000000
     13853       119  SAPS      H19S           -8.9470153737      -23.9578705373       -5.1451038052  MEMB      119             0.0000000000
     13854       119  SAPS      C220           -9.4050702263      -24.3158189023       -3.0498401767  MEMB      119             0.0000000000
     13855       119  SAPS      H20R           -9.4507694118      -25.4115423095       -3.2276680491  MEMB      119             0.0000000000
     13856       119  SAPS      H20S          -10.4534446125      -23.9542345009       -3.1168384923  MEMB      119             0.0000000000
     13857       119  SAPS      H20T           -8.8924116227      -24.1094452376       -2.0860404701  MEMB      119             0.0000000000
     13858       119  SAPS      C33            -4.5798076763      -20.4725955930      -14.6046347414  MEMB      119             0.0000000000
     13859       119  SAPS      H3X            -4.4806726808      -20.9836362478      -13.6231407895  MEMB      119             0.0000000000
     13860       119  SAPS      H3Y            -5.6002825919      -20.1757257232      -14.9283943657  MEMB      119             0.0000000000
     13861       119  SAPS      C34            -3.6466671210      -19.2391793931      -14.6131563290  MEMB      119             0.0000000000
     13862       119  SAPS      H4X            -3.7473585256      -18.7249139726      -15.5928063631  MEMB      119             0.0000000000
     13863       119  SAPS      H4Y            -2.5735007842      -19.4913239254      -14.4751041036  MEMB      119             0.0000000000
     13864       119  SAPS      C35            -4.1892134231      -18.1116000898      -13.7165673243  MEMB      119             0.0000000000
     13865       119  SAPS      H5X            -5.2817386214      -18.2930779056      -13.6283887013  MEMB      119             0.0000000000
     13866       119  SAPS      H5Y            -4.1612628446      -17.1676239563      -14.3017589724  MEMB      119             0.0000000000
     13867       119  SAPS      C36            -3.6677897724      -17.8978930168      -12.2714827149  MEMB      119             0.0000000000
     13868       119  SAPS      H6X            -4.0946943680      -16.9364881618      -11.9140276744  MEMB      119             0.0000000000
     13869       119  SAPS      H6Y            -2.5647599891      -17.7931230919      -12.3531515401  MEMB      119             0.0000000000
     13870       119  SAPS      C37            -3.9707907520      -19.0617084096      -11.3408525506  MEMB      119             0.0000000000
     13871       119  SAPS      H7X            -3.6269523557      -20.0100428767      -11.8064252707  MEMB      119             0.0000000000
     13872       119  SAPS      H7Y            -5.0705225975      -19.0824629626      -11.1843906255  MEMB      119             0.0000000000
     13873       119  SAPS      C38            -3.1792211726      -18.9705056047      -10.0452159201  MEMB      119             0.0000000000
     13874       119  SAPS      H8X            -2.6513658798      -17.9995555578       -9.9314360464  MEMB      119             0.0000000000
     13875       119  SAPS      H8Y            -2.3778041867      -19.7399222420      -10.0381540720  MEMB      119             0.0000000000
     13876       119  SAPS      C39            -3.9663928560      -19.1709666073       -8.7913289714  MEMB      119             0.0000000000
     13877       119  SAPS      H9X            -3.2356199258      -19.3179792238       -7.9675087382  MEMB      119             0.0000000000
     13878       119  SAPS      H9Y            -4.7073813638      -19.9975946343       -8.8354129223  MEMB      119             0.0000000000
     13879       119  SAPS      C310           -4.8482668535      -17.9571145919       -8.4801919062  MEMB      119             0.0000000000
     13880       119  SAPS      H10X           -5.4494680881      -17.7936336705       -9.4000577904  MEMB      119             0.0000000000
     13881       119  SAPS      H10Y           -4.1528952027      -17.1002669096       -8.3513825743  MEMB      119             0.0000000000
     13882       119  SAPS      C311           -5.5954137791      -18.0353499358       -7.1622873487  MEMB      119             0.0000000000
     13883       119  SAPS      H11X           -4.7408656494      -18.0093104463       -6.4527872372  MEMB      119             0.0000000000
     13884       119  SAPS      H11Y           -6.1941169360      -18.9712271283       -7.1591816936  MEMB      119             0.0000000000
     13885       119  SAPS      C312           -6.5503268987      -16.8664380571       -7.0091299801  MEMB      119             0.0000000000
     13886       119  SAPS      H12X           -7.1441460157      -16.9253385282       -7.9462700222  MEMB      119             0.0000000000
     13887       119  SAPS      H12Y           -5.9673246260      -15.9222503391       -6.9549200473  MEMB      119             0.0000000000
     13888       119  SAPS      C313           -7.5265026067      -17.0064469476       -5.8875365752  MEMB      119             0.0000000000
     13889       119  SAPS      H13X           -8.0172597800      -17.9831583060       -6.0863168934  MEMB      119             0.0000000000
     13890       119  SAPS      H13Y           -8.1476191281      -16.0853952560       -5.9016404556  MEMB      119             0.0000000000
     13891       119  SAPS      C314           -6.9167817016      -16.8288412072       -4.5131660952  MEMB      119             0.0000000000
     13892       119  SAPS      H14X           -7.6331687696      -16.2131502756       -3.9283279984  MEMB      119             0.0000000000
     13893       119  SAPS      H14Y           -5.8937728761      -16.4157519290       -4.6440528937  MEMB      119             0.0000000000
     13894       119  SAPS      C315           -6.7381453457      -18.2143021343       -3.7486228688  MEMB      119             0.0000000000
     13895       119  SAPS      H15X           -6.1772890924      -18.8540261800       -4.4631260278  MEMB      119             0.0000000000
     13896       119  SAPS      H15Y           -7.6932406625      -18.7754031343       -3.6633050967  MEMB      119             0.0000000000
     13897       119  SAPS      C316           -6.0927224514      -18.0863434488       -2.3197238239  MEMB      119             0.0000000000
     13898       119  SAPS      H16X           -6.5118792148      -17.1581682915       -1.8757418417  MEMB      119             0.0000000000
     13899       119  SAPS      H16Y           -5.0242603553      -17.8391505560       -2.4975011810  MEMB      119             0.0000000000
     13900       119  SAPS      C317           -5.9924265110      -19.3561012137       -1.5602567023  MEMB      119             0.0000000000
     13901       119  SAPS      H17X           -6.9509045305      -19.7145048293       -1.1276057334  MEMB      119             0.0000000000
     13902       119  SAPS      H17Y           -5.4619409137      -18.9396563407       -0.6773760788  MEMB      119             0.0000000000
     13903       119  SAPS      C318           -5.2222419086      -20.5943666981       -2.1541229081  MEMB      119             0.0000000000
     13904       119  SAPS      H18X           -4.2005474177      -20.3123409270       -2.4871735370  MEMB      119             0.0000000000
     13905       119  SAPS      H18Y           -5.6771715865      -21.1029904702       -3.0308563335  MEMB      119             0.0000000000
     13906       119  SAPS      H18Z           -4.8899792152      -21.4516889609       -1.5304875893  MEMB      119             0.0000000000
     13907       120  CHL1      C3            -10.2429308514       17.6901103214      -17.3695950000  MEMB      120             0.0000000000
     13908       120  CHL1      H3            -10.4720379864       16.6042338452      -17.4217150000  MEMB      120             0.0000000000
     13909       120  CHL1      O3            -10.0538243486       18.2931720786      -18.6304050000  MEMB      120             0.0000000000
     13910       120  CHL1      H3'           -10.7986632549       17.9323252215      -19.1168350000  MEMB      120             0.0000000000
     13911       120  CHL1      C4            -11.4457717942       18.4373513638      -16.7148250000  MEMB      120             0.0000000000
     13912       120  CHL1      H4A           -11.2679614661       19.5320575232      -16.7804850000  MEMB      120             0.0000000000
     13913       120  CHL1      H4B           -12.3025422171       18.2842777499      -17.4053650000  MEMB      120             0.0000000000
     13914       120  CHL1      C5            -11.5792275068       18.0785323386      -15.2581350000  MEMB      120             0.0000000000
     13915       120  CHL1      C6            -12.7353620215       17.6526955515      -14.7903850000  MEMB      120             0.0000000000
     13916       120  CHL1      H6            -13.6164160184       17.5124227357      -15.4338750000  MEMB      120             0.0000000000
     13917       120  CHL1      C7            -13.0106680451       17.3247322637      -13.3888950000  MEMB      120             0.0000000000
     13918       120  CHL1      H7A           -14.0221470930       17.6570265794      -13.0714050000  MEMB      120             0.0000000000
     13919       120  CHL1      H7B           -12.8875557931       16.2280542868      -13.2606450000  MEMB      120             0.0000000000
     13920       120  CHL1      C8            -12.0017499209       18.1214176854      -12.4760050000  MEMB      120             0.0000000000
     13921       120  CHL1      H8            -12.2380879786       19.1877772370      -12.6793250000  MEMB      120             0.0000000000
     13922       120  CHL1      C14           -12.2800017784       17.6808607008      -11.0527350000  MEMB      120             0.0000000000
     13923       120  CHL1      H14           -12.1862984501       16.5771697567      -11.1388450000  MEMB      120             0.0000000000
     13924       120  CHL1      C15           -13.6697235012       17.8875852508      -10.4277450000  MEMB      120             0.0000000000
     13925       120  CHL1      H15A          -14.0380858985       18.8863688729      -10.7456450000  MEMB      120             0.0000000000
     13926       120  CHL1      H15B          -14.3326501039       17.1264543733      -10.8920050000  MEMB      120             0.0000000000
     13927       120  CHL1      C16           -13.4393905541       17.8559335039       -8.9152850000  MEMB      120             0.0000000000
     13928       120  CHL1      H16A          -13.8733076682       18.7636432872       -8.4439850000  MEMB      120             0.0000000000
     13929       120  CHL1      H16B          -13.9187836863       17.0139702462       -8.3716050000  MEMB      120             0.0000000000
     13930       120  CHL1      C17           -11.8941126325       17.7390683258       -8.6994950000  MEMB      120             0.0000000000
     13931       120  CHL1      H17           -11.6509362757       16.6587965434       -8.7900850000  MEMB      120             0.0000000000
     13932       120  CHL1      C13           -11.2411352212       18.2500535866      -10.0245450000  MEMB      120             0.0000000000
     13933       120  CHL1      C18           -11.2060545230       19.8346539411       -9.9391450000  MEMB      120             0.0000000000
     13934       120  CHL1      H18A          -11.3745839128       20.2866760304      -10.9399450000  MEMB      120             0.0000000000
     13935       120  CHL1      H18B          -12.0180198630       20.2836550195       -9.3280550000  MEMB      120             0.0000000000
     13936       120  CHL1      H18C          -10.1840974209       20.0739182562       -9.5748850000  MEMB      120             0.0000000000
     13937       120  CHL1      C12            -9.9169897171       17.7733948065      -10.4751550000  MEMB      120             0.0000000000
     13938       120  CHL1      H12A           -9.1013973546       18.1577766957       -9.8260250000  MEMB      120             0.0000000000
     13939       120  CHL1      H12B           -9.9441987583       16.6636710447      -10.4294250000  MEMB      120             0.0000000000
     13940       120  CHL1      C11            -9.5368436998       18.2352556172      -11.8738950000  MEMB      120             0.0000000000
     13941       120  CHL1      H11A           -9.4893207413       19.3407374024      -11.7740150000  MEMB      120             0.0000000000
     13942       120  CHL1      H11B           -8.5773628368       17.7275880502      -12.1105550000  MEMB      120             0.0000000000
     13943       120  CHL1      C9            -10.5539403956       17.8337645445      -12.9694350000  MEMB      120             0.0000000000
     13944       120  CHL1      H9            -10.4982551250       16.7262844992      -13.0381550000  MEMB      120             0.0000000000
     13945       120  CHL1      C10           -10.2572523317       18.2766973015      -14.4236750000  MEMB      120             0.0000000000
     13946       120  CHL1      C19            -9.7300230170       19.7414063482      -14.3553550000  MEMB      120             0.0000000000
     13947       120  CHL1      H19A           -8.7994587065       19.8149530091      -13.7528950000  MEMB      120             0.0000000000
     13948       120  CHL1      H19B           -9.6305224494       20.2028340483      -15.3610950000  MEMB      120             0.0000000000
     13949       120  CHL1      H19C          -10.5855749782       20.3134035280      -13.9368250000  MEMB      120             0.0000000000
     13950       120  CHL1      C1             -9.0685546878       17.5627569137      -15.1539550000  MEMB      120             0.0000000000
     13951       120  CHL1      H1A            -8.1558604857       17.9431679031      -14.6474050000  MEMB      120             0.0000000000
     13952       120  CHL1      H1B            -9.1387658922       16.4669608137      -14.9847550000  MEMB      120             0.0000000000
     13953       120  CHL1      C2             -8.9589107349       17.8707602612      -16.6114150000  MEMB      120             0.0000000000
     13954       120  CHL1      H2A            -8.1703970369       17.2778352588      -17.1222950000  MEMB      120             0.0000000000
     13955       120  CHL1      H2B            -8.6026441216       18.9089589451      -16.7832750000  MEMB      120             0.0000000000
     13956       120  CHL1      C20           -11.4203343738       18.2770581767       -7.2951950000  MEMB      120             0.0000000000
     13957       120  CHL1      H20           -11.8342604468       19.3079477897       -7.2796850000  MEMB      120             0.0000000000
     13958       120  CHL1      C21            -9.8960273777       18.3198455428       -7.0234750000  MEMB      120             0.0000000000
     13959       120  CHL1      H21A           -9.4137482188       17.3205290725       -6.9678950000  MEMB      120             0.0000000000
     13960       120  CHL1      H21B           -9.7592575854       18.6914266241       -5.9854350000  MEMB      120             0.0000000000
     13961       120  CHL1      H21C           -9.3203935388       18.9363818500       -7.7465650000  MEMB      120             0.0000000000
     13962       120  CHL1      C22           -12.2154374560       17.5025688875       -6.1739050000  MEMB      120             0.0000000000
     13963       120  CHL1      H22A          -12.0685990449       18.1031278215       -5.2508150000  MEMB      120             0.0000000000
     13964       120  CHL1      H22B          -13.3097956844       17.4307606389       -6.3515550000  MEMB      120             0.0000000000
     13965       120  CHL1      C23           -11.7826860476       16.0621776051       -5.7868650000  MEMB      120             0.0000000000
     13966       120  CHL1      H23A          -11.6096219713       15.5146392050       -6.7379450000  MEMB      120             0.0000000000
     13967       120  CHL1      H23B          -10.8005153606       16.0959461262       -5.2686650000  MEMB      120             0.0000000000
     13968       120  CHL1      C24           -12.8152364708       15.2287772785       -4.9814050000  MEMB      120             0.0000000000
     13969       120  CHL1      H24A          -13.6235592407       15.3278734713       -5.7371350000  MEMB      120             0.0000000000
     13970       120  CHL1      H24B          -12.4559488620       14.1817650777       -4.8865750000  MEMB      120             0.0000000000
     13971       120  CHL1      C25           -13.0887989026       15.8974961500       -3.5610650000  MEMB      120             0.0000000000
     13972       120  CHL1      H25           -13.4211705185       16.9425842605       -3.7389650000  MEMB      120             0.0000000000
     13973       120  CHL1      C26           -14.2682584474       15.1638561714       -3.0070550000  MEMB      120             0.0000000000
     13974       120  CHL1      H26A          -15.0947610798       15.0627986373       -3.7425850000  MEMB      120             0.0000000000
     13975       120  CHL1      H26B          -13.9265589097       14.2095005351       -2.5523350000  MEMB      120             0.0000000000
     13976       120  CHL1      H26C          -14.7421200658       15.7100717016       -2.1635950000  MEMB      120             0.0000000000
     13977       120  CHL1      C27           -12.0200643751       15.6154240531       -2.5663550000  MEMB      120             0.0000000000
     13978       120  CHL1      H27A          -12.3582218732       16.0792313663       -1.6151150000  MEMB      120             0.0000000000
     13979       120  CHL1      H27B          -11.8004010044       14.5350270332       -2.4291650000  MEMB      120             0.0000000000
     13980       120  CHL1      H27C          -11.0627809818       16.0651207483       -2.9064750000  MEMB      120             0.0000000000
     13981       121  OSM       N             -20.1935268196        5.3491334918      -22.9947987748  MEMB      121             0.0000000000
     13982       121  OSM       C15           -19.0768042904        4.4733505113      -22.5244125378  MEMB      121             0.0000000000
     13983       121  OSM       H15A          -19.1646091137        3.4504511024      -22.8596246926  MEMB      121             0.0000000000
     13984       121  OSM       H15B          -19.2017629650        4.3427069670      -21.4596507885  MEMB      121             0.0000000000
     13985       121  OSM       H15C          -18.1264040248        4.9527472084      -22.7069452994  MEMB      121             0.0000000000
     13986       121  OSM       C14           -19.7699314647        6.7882541363      -23.0941702678  MEMB      121             0.0000000000
     13987       121  OSM       H14A          -20.5995804701        7.2848406439      -23.5752983420  MEMB      121             0.0000000000
     13988       121  OSM       H14B          -18.9177443348        6.7576488398      -23.7569223853  MEMB      121             0.0000000000
     13989       121  OSM       H14C          -19.6622210491        7.1139780920      -22.0701083905  MEMB      121             0.0000000000
     13990       121  OSM       C13           -20.5556634604        4.7288316347      -24.3961727653  MEMB      121             0.0000000000
     13991       121  OSM       H13A          -21.0416152425        5.4875969954      -24.9915937437  MEMB      121             0.0000000000
     13992       121  OSM       H13B          -21.1496208149        3.8346065406      -24.2779517878  MEMB      121             0.0000000000
     13993       121  OSM       H13C          -19.7460063699        4.3423431167      -24.9974063738  MEMB      121             0.0000000000
     13994       121  OSM       C12           -21.3936400138        5.1526853589      -22.1084464638  MEMB      121             0.0000000000
     13995       121  OSM       H12A          -21.8183171827        4.2255698686      -22.4641235811  MEMB      121             0.0000000000
     13996       121  OSM       H12B          -22.0877285181        5.9503215318      -22.3284866033  MEMB      121             0.0000000000
     13997       121  OSM       C11           -21.2862341614        5.1859685978      -20.5708392849  MEMB      121             0.0000000000
     13998       121  OSM       H11A          -20.7433737028        4.2634283002      -20.2732776841  MEMB      121             0.0000000000
     13999       121  OSM       H11B          -22.2979792351        4.9479142819      -20.1783816999  MEMB      121             0.0000000000
     14000       121  OSM       P             -19.7610547196        6.5107089772      -19.0659485677  MEMB      121             0.0000000000
     14001       121  OSM       O13           -18.4319958901        6.5528565426      -19.6037620127  MEMB      121             0.0000000000
     14002       121  OSM       O14           -20.1617423204        7.5502657410      -18.0939759534  MEMB      121             0.0000000000
     14003       121  OSM       O11           -19.9280515802        5.0055963392      -18.3495618588  MEMB      121             0.0000000000
     14004       121  OSM       O12           -20.8477712835        6.4819147432      -20.1979115081  MEMB      121             0.0000000000
     14005       121  OSM       C1S           -18.8774406506        4.8586358709      -17.3428277701  MEMB      121             0.0000000000
     14006       121  OSM       H1S           -18.3054064496        5.7784003543      -17.0955803096  MEMB      121             0.0000000000
     14007       121  OSM       H1T           -18.1337277390        4.1084036963      -17.6868681280  MEMB      121             0.0000000000
     14008       121  OSM       NF            -18.3388394781        4.3821486526      -14.9693829072  MEMB      121             0.0000000000
     14009       121  OSM       HNF           -17.9347254904        3.5361938060      -14.6301759425  MEMB      121             0.0000000000
     14010       121  OSM       C2S           -19.3508728722        4.1946700562      -15.9721631671  MEMB      121             0.0000000000
     14011       121  OSM       H2S           -20.2470779573        4.7063994890      -15.5607382324  MEMB      121             0.0000000000
     14012       121  OSM       C3S           -19.7124938953        2.7191667605      -16.1813910045  MEMB      121             0.0000000000
     14013       121  OSM       H3S           -18.7601496349        2.2292893305      -16.4769941816  MEMB      121             0.0000000000
     14014       121  OSM       O3            -20.5027864157        2.4989617013      -17.2786785573  MEMB      121             0.0000000000
     14015       121  OSM       HO3           -20.4616537093        3.2313913577      -17.8979158594  MEMB      121             0.0000000000
     14016       121  OSM       C4S           -20.3756104719        2.1441994952      -14.9786152826  MEMB      121             0.0000000000
     14017       121  OSM       H4S           -21.4130881285        2.3812473336      -14.7003199642  MEMB      121             0.0000000000
     14018       121  OSM       C5S           -19.6158526596        1.3286524404      -14.1821644238  MEMB      121             0.0000000000
     14019       121  OSM       H5S           -18.5836315428        1.1257743829      -14.5036614994  MEMB      121             0.0000000000
     14020       121  OSM       C6S           -19.9452787542        0.6233187692      -12.9215086637  MEMB      121             0.0000000000
     14021       121  OSM       H6S           -19.6958826402       -0.4529844835      -13.0385335050  MEMB      121             0.0000000000
     14022       121  OSM       H6T           -21.0301263214        0.6098816746      -12.6822467442  MEMB      121             0.0000000000
     14023       121  OSM       C7S           -19.1810530583        1.1965112970      -11.6692984777  MEMB      121             0.0000000000
     14024       121  OSM       H7S           -18.0878362784        1.0672821180      -11.8192912063  MEMB      121             0.0000000000
     14025       121  OSM       H7T           -19.5252307626        0.7765664521      -10.7000157489  MEMB      121             0.0000000000
     14026       121  OSM       C8S           -19.4219712652        2.7624674931      -11.3729861852  MEMB      121             0.0000000000
     14027       121  OSM       H8S           -20.4795505435        3.0451071889      -11.5626231233  MEMB      121             0.0000000000
     14028       121  OSM       H8T           -18.8905831212        3.4181067938      -12.0955406438  MEMB      121             0.0000000000
     14029       121  OSM       C9S           -19.1489288200        3.2322995823       -9.8768353608  MEMB      121             0.0000000000
     14030       121  OSM       H9S           -19.9387670870        2.7503959066       -9.2618194746  MEMB      121             0.0000000000
     14031       121  OSM       H9T           -19.4323526126        4.3061734996       -9.9048853995  MEMB      121             0.0000000000
     14032       121  OSM       C10S          -17.8188288757        2.9657406455       -9.3017096794  MEMB      121             0.0000000000
     14033       121  OSM       H10S          -17.0223542690        3.4521499408       -9.9044995798  MEMB      121             0.0000000000
     14034       121  OSM       H10T          -17.4956051789        1.9259923203       -9.5225516946  MEMB      121             0.0000000000
     14035       121  OSM       C11S          -17.5301108194        3.4027431189       -7.8360029924  MEMB      121             0.0000000000
     14036       121  OSM       H11S          -17.5445407811        4.5048403838       -7.9756254889  MEMB      121             0.0000000000
     14037       121  OSM       H11T          -16.5957435526        2.8722606378       -7.5533955868  MEMB      121             0.0000000000
     14038       121  OSM       C12S          -18.7107779059        3.1080017878       -6.8169703152  MEMB      121             0.0000000000
     14039       121  OSM       H12S          -18.7097095990        2.0089059256       -6.6547712530  MEMB      121             0.0000000000
     14040       121  OSM       H12T          -19.6748398883        3.4628406743       -7.2400473193  MEMB      121             0.0000000000
     14041       121  OSM       C13S          -18.3869297613        3.7414751031       -5.4305721628  MEMB      121             0.0000000000
     14042       121  OSM       H13S          -18.6778916176        4.8125565413       -5.4800363497  MEMB      121             0.0000000000
     14043       121  OSM       H13T          -17.3007914404        3.6898561670       -5.2026239261  MEMB      121             0.0000000000
     14044       121  OSM       C14S          -19.1520069161        3.2429222868       -4.2336869463  MEMB      121             0.0000000000
     14045       121  OSM       H14S          -19.0294693837        2.1421710376       -4.1462081025  MEMB      121             0.0000000000
     14046       121  OSM       H14T          -20.2521644009        3.3182098722       -4.3689860633  MEMB      121             0.0000000000
     14047       121  OSM       C15S          -18.5798062974        3.8234698195       -2.8875669663  MEMB      121             0.0000000000
     14048       121  OSM       H15S          -18.7379760730        4.9157289256       -3.0151342340  MEMB      121             0.0000000000
     14049       121  OSM       H15T          -17.4693526387        3.7940386055       -2.9062026120  MEMB      121             0.0000000000
     14050       121  OSM       C16S          -19.3008667669        3.4201678839       -1.6302668530  MEMB      121             0.0000000000
     14051       121  OSM       H16S          -20.4090762777        3.4082259397       -1.7080504804  MEMB      121             0.0000000000
     14052       121  OSM       H16T          -19.1274911069        4.1538423584       -0.8141884983  MEMB      121             0.0000000000
     14053       121  OSM       C17S          -18.8012042736        2.0846097777       -1.1147121816  MEMB      121             0.0000000000
     14054       121  OSM       H17S          -18.6878663845        1.9894277292       -0.0136150680  MEMB      121             0.0000000000
     14055       121  OSM       H17T          -17.8400468834        1.9009273269       -1.6407913470  MEMB      121             0.0000000000
     14056       121  OSM       C18S          -19.8392296464        0.9221067097       -1.4036872862  MEMB      121             0.0000000000
     14057       121  OSM       H18S          -19.4025758218       -0.0986437824       -1.3621849083  MEMB      121             0.0000000000
     14058       121  OSM       H18T          -20.4298152883        1.0096518143       -2.3406324395  MEMB      121             0.0000000000
     14059       121  OSM       H18U          -20.5223826560        0.9678004549       -0.5287385533  MEMB      121             0.0000000000
     14060       121  OSM       C1F           -17.9201458333        5.6056849245      -14.5066590489  MEMB      121             0.0000000000
     14061       121  OSM       OF            -18.5411714837        6.6631290353      -14.8108899593  MEMB      121             0.0000000000
     14062       121  OSM       C2F           -16.5864253555        5.6363030857      -13.6869203703  MEMB      121             0.0000000000
     14063       121  OSM       H2F           -15.7906716553        5.9443489780      -14.3984010787  MEMB      121             0.0000000000
     14064       121  OSM       H2G           -16.4542641880        4.6138885356      -13.2727673380  MEMB      121             0.0000000000
     14065       121  OSM       C3F           -16.5274845824        6.6828993764      -12.5454610353  MEMB      121             0.0000000000
     14066       121  OSM       H3F           -16.4303912237        7.6435017740      -13.0951312481  MEMB      121             0.0000000000
     14067       121  OSM       H3G           -15.6266611916        6.5330614949      -11.9127002366  MEMB      121             0.0000000000
     14068       121  OSM       C4F           -17.8517224281        6.5978477958      -11.6126885095  MEMB      121             0.0000000000
     14069       121  OSM       H4F           -18.0664497583        5.5340127300      -11.3750577434  MEMB      121             0.0000000000
     14070       121  OSM       H4G           -18.7254373634        6.9689587225      -12.1899403339  MEMB      121             0.0000000000
     14071       121  OSM       C5F           -17.6877197456        7.5101453833      -10.3793533763  MEMB      121             0.0000000000
     14072       121  OSM       H5F           -17.4055439311        8.5554825236      -10.6282861246  MEMB      121             0.0000000000
     14073       121  OSM       H5G           -16.8833704920        7.0994012046       -9.7323349553  MEMB      121             0.0000000000
     14074       121  OSM       C6F           -18.8676476278        7.7449637545       -9.5080134677  MEMB      121             0.0000000000
     14075       121  OSM       H6F           -18.4486756953        8.2060878056       -8.5881500601  MEMB      121             0.0000000000
     14076       121  OSM       H6G           -19.3121679417        6.7891346435       -9.1571375367  MEMB      121             0.0000000000
     14077       121  OSM       C7F           -19.9542204423        8.6695414442      -10.0083470115  MEMB      121             0.0000000000
     14078       121  OSM       H7F           -20.2988169867        8.2745098228      -10.9879007754  MEMB      121             0.0000000000
     14079       121  OSM       H7G           -19.5684289749        9.6971016615      -10.1804106334  MEMB      121             0.0000000000
     14080       121  OSM       C8F           -21.0894858140        8.6669682910       -9.0710564860  MEMB      121             0.0000000000
     14081       121  OSM       H8F           -21.7998594628        9.4852556366       -9.3162018329  MEMB      121             0.0000000000
     14082       121  OSM       H8G           -20.7318556362        9.0265510833       -8.0825622833  MEMB      121             0.0000000000
     14083       121  OSM       C9F           -21.8759926721        7.3497320596       -8.9100147567  MEMB      121             0.0000000000
     14084       121  OSM       H9F           -22.5755274879        7.1015622758       -9.7218420780  MEMB      121             0.0000000000
     14085       121  OSM       C10F          -21.8495025156        6.4978718920       -7.8686789198  MEMB      121             0.0000000000
     14086       121  OSM       H10F          -22.3481998636        5.5297605698       -8.0237961467  MEMB      121             0.0000000000
     14087       121  OSM       C11F          -21.0603267535        6.5368118443       -6.6144063455  MEMB      121             0.0000000000
     14088       121  OSM       H11F          -20.1463016903        7.1481166317       -6.7731059574  MEMB      121             0.0000000000
     14089       121  OSM       H11G          -20.6728171192        5.5020860204       -6.4982184699  MEMB      121             0.0000000000
     14090       121  OSM       C12F          -21.8724337742        7.0059750923       -5.4169955025  MEMB      121             0.0000000000
     14091       121  OSM       H12F          -22.8670813604        6.5246699749       -5.3014862230  MEMB      121             0.0000000000
     14092       121  OSM       H12G          -22.1783998896        8.0422948816       -5.6753499342  MEMB      121             0.0000000000
     14093       121  OSM       C13F          -21.0945176694        7.1484223916       -4.0616355365  MEMB      121             0.0000000000
     14094       121  OSM       H13F          -20.8463752983        6.0936248482       -3.8163836397  MEMB      121             0.0000000000
     14095       121  OSM       H13G          -21.7679841707        7.5039013070       -3.2526851228  MEMB      121             0.0000000000
     14096       121  OSM       C14F          -19.8698038988        8.0578558023       -4.1831157749  MEMB      121             0.0000000000
     14097       121  OSM       H14F          -20.2572264337        8.9615546284       -4.7003714211  MEMB      121             0.0000000000
     14098       121  OSM       H14G          -19.2253009299        7.5040263967       -4.8988050584  MEMB      121             0.0000000000
     14099       121  OSM       C15F          -19.0856037206        8.3819376396       -2.8898241725  MEMB      121             0.0000000000
     14100       121  OSM       H15F          -18.6233757936        7.4559723055       -2.4857746873  MEMB      121             0.0000000000
     14101       121  OSM       H15G          -19.7860766763        8.5622969359       -2.0465389689  MEMB      121             0.0000000000
     14102       121  OSM       C16F          -18.2270143697        9.6562194290       -3.0474809330  MEMB      121             0.0000000000
     14103       121  OSM       H16F          -18.9335710092       10.4793759187       -3.2872973056  MEMB      121             0.0000000000
     14104       121  OSM       H16G          -17.4524987062        9.6091920437       -3.8426135500  MEMB      121             0.0000000000
     14105       121  OSM       C17F          -17.5305663847       10.0975726367       -1.6893831306  MEMB      121             0.0000000000
     14106       121  OSM       H17F          -18.3198415538       10.2397530839       -0.9205184118  MEMB      121             0.0000000000
     14107       121  OSM       H17G          -17.1406857663       11.1129853557       -1.9157696876  MEMB      121             0.0000000000
     14108       121  OSM       C18F          -16.4584215039        9.0972816114       -1.3009582233  MEMB      121             0.0000000000
     14109       121  OSM       H18F          -16.9569346008        8.1379955358       -1.0448782410  MEMB      121             0.0000000000
     14110       121  OSM       H18G          -15.9366177390        9.4556745909       -0.3879422368  MEMB      121             0.0000000000
     14111       121  OSM       H18H          -15.7059231037        9.0203008204       -2.1146771889  MEMB      121             0.0000000000
     14112       122  OSM       N               1.8804230943      -21.2422191442      -23.1433287601  MEMB      122             0.0000000000
     14113       122  OSM       C15             1.2388171350      -21.0742676162      -24.5622656700  MEMB      122             0.0000000000
     14114       122  OSM       H15A            0.3415802958      -21.6734582577      -24.6106049947  MEMB      122             0.0000000000
     14115       122  OSM       H15B            1.8571815523      -21.4650815827      -25.3568034120  MEMB      122             0.0000000000
     14116       122  OSM       H15C            0.9059366416      -20.0487332101      -24.6244746552  MEMB      122             0.0000000000
     14117       122  OSM       C14             2.6178378720      -22.5161272252      -23.1327395528  MEMB      122             0.0000000000
     14118       122  OSM       H14A            3.2443601306      -22.6775802121      -23.9974955450  MEMB      122             0.0000000000
     14119       122  OSM       H14B            1.9615201328      -23.3732790149      -23.1021170818  MEMB      122             0.0000000000
     14120       122  OSM       H14C            3.3345435450      -22.5396153047      -22.3251621432  MEMB      122             0.0000000000
     14121       122  OSM       C13             2.8465231094      -20.0937298116      -22.9296226680  MEMB      122             0.0000000000
     14122       122  OSM       H13A            2.3125462945      -19.1663925448      -23.0756167147  MEMB      122             0.0000000000
     14123       122  OSM       H13B            3.6101735977      -20.0519961687      -23.6921816540  MEMB      122             0.0000000000
     14124       122  OSM       H13C            3.3294975158      -20.2117498164      -21.9708697621  MEMB      122             0.0000000000
     14125       122  OSM       C12             0.7055515891      -21.2873836399      -22.1665092711  MEMB      122             0.0000000000
     14126       122  OSM       H12A            0.2209229301      -22.2491535097      -22.0856781811  MEMB      122             0.0000000000
     14127       122  OSM       H12B           -0.0759498603      -20.6184938226      -22.4955106789  MEMB      122             0.0000000000
     14128       122  OSM       C11             1.0178653677      -20.8429226826      -20.7208514142  MEMB      122             0.0000000000
     14129       122  OSM       H11A            0.1555821323      -21.0451486204      -20.0501106803  MEMB      122             0.0000000000
     14130       122  OSM       H11B            1.0444160048      -19.7327715904      -20.7552123746  MEMB      122             0.0000000000
     14131       122  OSM       P               2.7806950640      -21.1550179178      -18.8361061371  MEMB      122             0.0000000000
     14132       122  OSM       O13             3.4296633550      -22.4333661592      -18.6357669487  MEMB      122             0.0000000000
     14133       122  OSM       O14             3.6195768389      -19.9057661202      -18.7041064156  MEMB      122             0.0000000000
     14134       122  OSM       O11             1.4803242628      -20.9941281159      -17.8866772740  MEMB      122             0.0000000000
     14135       122  OSM       O12             2.2232625549      -21.3049151659      -20.2820258875  MEMB      122             0.0000000000
     14136       122  OSM       C1S             1.3898280261      -21.4502649395      -16.5316520515  MEMB      122             0.0000000000
     14137       122  OSM       H1S             1.7142418790      -22.5023459856      -16.3826475990  MEMB      122             0.0000000000
     14138       122  OSM       H1T             0.2944366566      -21.3489954164      -16.3761426139  MEMB      122             0.0000000000
     14139       122  OSM       NF              2.1017714254      -21.2012711713      -14.2202909562  MEMB      122             0.0000000000
     14140       122  OSM       HNF             1.5268837482      -20.8362634969      -13.4920860142  MEMB      122             0.0000000000
     14141       122  OSM       C2S             2.1138501447      -20.5654346159      -15.5028701623  MEMB      122             0.0000000000
     14142       122  OSM       H2S             3.1528171383      -20.5212725155      -15.8939181380  MEMB      122             0.0000000000
     14143       122  OSM       C3S             1.4925499185      -19.1209915332      -15.4863239672  MEMB      122             0.0000000000
     14144       122  OSM       H3S             0.4074504136      -19.2312270947      -15.2748333900  MEMB      122             0.0000000000
     14145       122  OSM       O3              1.7294265657      -18.3614033571      -16.6819028974  MEMB      122             0.0000000000
     14146       122  OSM       HO3             2.2793348820      -18.9504129638      -17.2036964656  MEMB      122             0.0000000000
     14147       122  OSM       C4S             2.0017711914      -18.3698323171      -14.3151900105  MEMB      122             0.0000000000
     14148       122  OSM       H4S             1.4757016823      -18.4563049906      -13.3530189081  MEMB      122             0.0000000000
     14149       122  OSM       C5S             3.0367357808      -17.4964818748      -14.2473242269  MEMB      122             0.0000000000
     14150       122  OSM       H5S             3.5947062253      -17.3344569111      -15.1813564956  MEMB      122             0.0000000000
     14151       122  OSM       C6S             3.4979366339      -16.7329565202      -12.9805818842  MEMB      122             0.0000000000
     14152       122  OSM       H6S             3.4210873398      -15.6477914856      -13.2060412567  MEMB      122             0.0000000000
     14153       122  OSM       H6T             4.5783997006      -16.9498638541      -12.8396155863  MEMB      122             0.0000000000
     14154       122  OSM       C7S             2.7275456739      -17.0600943192      -11.6376927083  MEMB      122             0.0000000000
     14155       122  OSM       H7S             1.6286234031      -16.9483671641      -11.7568894384  MEMB      122             0.0000000000
     14156       122  OSM       H7T             3.0494840037      -16.3588206445      -10.8383849062  MEMB      122             0.0000000000
     14157       122  OSM       C8S             2.9713263456      -18.4596579490      -10.9360240477  MEMB      122             0.0000000000
     14158       122  OSM       H8S             4.0144885028      -18.7965703798      -11.1166435681  MEMB      122             0.0000000000
     14159       122  OSM       H8T             2.3198879969      -19.2812562658      -11.3033458088  MEMB      122             0.0000000000
     14160       122  OSM       C9S             2.9274178793      -18.3700845359       -9.3382639283  MEMB      122             0.0000000000
     14161       122  OSM       H9S             1.9424827822      -17.8940171753       -9.1443976292  MEMB      122             0.0000000000
     14162       122  OSM       H9T             3.6300242004      -17.5734831727       -9.0125464323  MEMB      122             0.0000000000
     14163       122  OSM       C10S            3.4120274446      -19.5332554782       -8.4285874386  MEMB      122             0.0000000000
     14164       122  OSM       H10S            4.5035630233      -19.6201510569       -8.6165240187  MEMB      122             0.0000000000
     14165       122  OSM       H10T            2.8560539805      -20.4423323258       -8.7429028102  MEMB      122             0.0000000000
     14166       122  OSM       C11S            3.2105526907      -19.2993793183       -6.9331316157  MEMB      122             0.0000000000
     14167       122  OSM       H11S            2.1495332022      -19.0063980704       -6.7823973491  MEMB      122             0.0000000000
     14168       122  OSM       H11T            3.6972108325      -18.3338673014       -6.6776487670  MEMB      122             0.0000000000
     14169       122  OSM       C12S            3.5948506147      -20.4024810739       -5.9687963210  MEMB      122             0.0000000000
     14170       122  OSM       H12S            3.0453688578      -20.1726095385       -5.0309529682  MEMB      122             0.0000000000
     14171       122  OSM       H12T            4.6874704829      -20.3488205976       -5.7748293465  MEMB      122             0.0000000000
     14172       122  OSM       C13S            3.0759422224      -21.7685151430       -6.4110161820  MEMB      122             0.0000000000
     14173       122  OSM       H13S            3.1818458243      -22.0100622685       -7.4902572174  MEMB      122             0.0000000000
     14174       122  OSM       H13T            1.9681831857      -21.6913883422       -6.4462621221  MEMB      122             0.0000000000
     14175       122  OSM       C14S            3.4812473050      -22.8519915665       -5.4967076796  MEMB      122             0.0000000000
     14176       122  OSM       H14S            4.5616667436      -22.7994222160       -5.2432294754  MEMB      122             0.0000000000
     14177       122  OSM       H14T            3.3378310936      -23.8047224810       -6.0499313864  MEMB      122             0.0000000000
     14178       122  OSM       C15S            2.6516457430      -22.9694556138       -4.1758414378  MEMB      122             0.0000000000
     14179       122  OSM       H15S            1.6167340818      -23.3257330892       -4.3664859470  MEMB      122             0.0000000000
     14180       122  OSM       H15T            2.5899184217      -21.9474234536       -3.7446094143  MEMB      122             0.0000000000
     14181       122  OSM       C16S            3.3690424011      -23.9477891039       -3.1211695371  MEMB      122             0.0000000000
     14182       122  OSM       H16S            4.4690285493      -23.8427042020       -3.2365315051  MEMB      122             0.0000000000
     14183       122  OSM       H16T            3.2823915913      -24.9886479340       -3.4998841629  MEMB      122             0.0000000000
     14184       122  OSM       C17S            2.8941601921      -23.5665903866       -1.6140154322  MEMB      122             0.0000000000
     14185       122  OSM       H17S            1.8000119830      -23.3913970324       -1.6944400219  MEMB      122             0.0000000000
     14186       122  OSM       H17T            3.5086527094      -22.6563389891       -1.4461982136  MEMB      122             0.0000000000
     14187       122  OSM       C18S            3.1347951870      -24.6014815180       -0.5287682526  MEMB      122             0.0000000000
     14188       122  OSM       H18S            4.2250671448      -24.7366463301       -0.3633649118  MEMB      122             0.0000000000
     14189       122  OSM       H18T            2.6523602933      -25.5613609544       -0.8119800903  MEMB      122             0.0000000000
     14190       122  OSM       H18U            2.6875378911      -24.3061256249        0.4443950698  MEMB      122             0.0000000000
     14191       122  OSM       C1F             2.8167506925      -22.3989685423      -13.9206525781  MEMB      122             0.0000000000
     14192       122  OSM       OF              3.3573040800      -23.1172581616      -14.7778752020  MEMB      122             0.0000000000
     14193       122  OSM       C2F             2.9641679735      -22.7883742661      -12.4884322066  MEMB      122             0.0000000000
     14194       122  OSM       H2F             3.5953151696      -22.0471444918      -11.9531263503  MEMB      122             0.0000000000
     14195       122  OSM       H2G             3.4638877354      -23.7801216455      -12.4562031133  MEMB      122             0.0000000000
     14196       122  OSM       C3F             1.5641371840      -22.9801307487      -11.8670154584  MEMB      122             0.0000000000
     14197       122  OSM       H3F             1.0330337157      -23.8533646803      -12.3025756149  MEMB      122             0.0000000000
     14198       122  OSM       H3G             0.8996336516      -22.1091994465      -12.0520413030  MEMB      122             0.0000000000
     14199       122  OSM       C4F             1.6852374894      -23.0554307679      -10.3157976604  MEMB      122             0.0000000000
     14200       122  OSM       H4F             2.0478671607      -22.1067338937       -9.8654700188  MEMB      122             0.0000000000
     14201       122  OSM       H4G             2.5577721569      -23.6427964876       -9.9580188828  MEMB      122             0.0000000000
     14202       122  OSM       C5F             0.3619439095      -23.4514967042       -9.6541435189  MEMB      122             0.0000000000
     14203       122  OSM       H5F             0.6132471262      -24.0973796363       -8.7858103697  MEMB      122             0.0000000000
     14204       122  OSM       H5G            -0.3675786688      -23.9510908102      -10.3268417875  MEMB      122             0.0000000000
     14205       122  OSM       C6F            -0.4576266911      -22.3391973871       -9.0519323486  MEMB      122             0.0000000000
     14206       122  OSM       H6F            -0.7416835969      -21.6189506659       -9.8487243233  MEMB      122             0.0000000000
     14207       122  OSM       H6G             0.0987647428      -21.7711921605       -8.2759684692  MEMB      122             0.0000000000
     14208       122  OSM       C7F            -1.8494470648      -22.8674309121       -8.5491189467  MEMB      122             0.0000000000
     14209       122  OSM       H7F            -2.3421481328      -23.2785047137       -9.4560831788  MEMB      122             0.0000000000
     14210       122  OSM       H7G            -2.4214060492      -22.0561177324       -8.0501648832  MEMB      122             0.0000000000
     14211       122  OSM       C8F            -1.6938716792      -24.0225275673       -7.5984061062  MEMB      122             0.0000000000
     14212       122  OSM       H8F            -1.3926511722      -24.8781286617       -8.2399150385  MEMB      122             0.0000000000
     14213       122  OSM       H8G            -2.7520986048      -24.2271387990       -7.3289420759  MEMB      122             0.0000000000
     14214       122  OSM       C9F            -0.9322474423      -23.8351871897       -6.3510780895  MEMB      122             0.0000000000
     14215       122  OSM       H9F            -0.1872496572      -24.6183826105       -6.1471587115  MEMB      122             0.0000000000
     14216       122  OSM       C10F           -1.1778677088      -22.9483634027       -5.3630938357  MEMB      122             0.0000000000
     14217       122  OSM       H10F           -0.5774363531      -23.1573267352       -4.4654207652  MEMB      122             0.0000000000
     14218       122  OSM       C11F           -2.3106405270      -21.9578769717       -5.2617282190  MEMB      122             0.0000000000
     14219       122  OSM       H11F           -2.9284470663      -22.1331048023       -4.3551243888  MEMB      122             0.0000000000
     14220       122  OSM       H11G           -3.0814160502      -22.1313027464       -6.0428482298  MEMB      122             0.0000000000
     14221       122  OSM       C12F           -1.7942249289      -20.4842228462       -5.3910543293  MEMB      122             0.0000000000
     14222       122  OSM       H12F           -2.7213334225      -19.8932905532       -5.5510231742  MEMB      122             0.0000000000
     14223       122  OSM       H12G           -1.2598419874      -20.3381648441       -6.3540832639  MEMB      122             0.0000000000
     14224       122  OSM       C13F           -0.8560516247      -19.9540146420       -4.3166929829  MEMB      122             0.0000000000
     14225       122  OSM       H13F           -0.3498211804      -19.0248898345       -4.6554826842  MEMB      122             0.0000000000
     14226       122  OSM       H13G            0.0218015177      -20.5989533643       -4.0981777820  MEMB      122             0.0000000000
     14227       122  OSM       C14F           -1.4983550001      -19.6639081959       -2.9632592208  MEMB      122             0.0000000000
     14228       122  OSM       H14F           -1.6605798641      -20.6237840270       -2.4278695874  MEMB      122             0.0000000000
     14229       122  OSM       H14G           -2.4276355993      -19.1490232021       -3.2883004463  MEMB      122             0.0000000000
     14230       122  OSM       C15F           -0.7587323142      -18.7181708656       -1.9646197610  MEMB      122             0.0000000000
     14231       122  OSM       H15F           -1.2760224130      -18.7755723546       -0.9830705343  MEMB      122             0.0000000000
     14232       122  OSM       H15G           -0.6061085858      -17.6911077638       -2.3598002092  MEMB      122             0.0000000000
     14233       122  OSM       C16F            0.6247997376      -19.0976550765       -1.4489575670  MEMB      122             0.0000000000
     14234       122  OSM       H16F            0.9149986017      -18.4227477380       -0.6155275532  MEMB      122             0.0000000000
     14235       122  OSM       H16G            1.4415991607      -19.1185101885       -2.2017705992  MEMB      122             0.0000000000
     14236       122  OSM       C17F            0.7000475012      -20.4885241619       -0.8411010440  MEMB      122             0.0000000000
     14237       122  OSM       H17F            0.9041306407      -21.1969328778       -1.6722613775  MEMB      122             0.0000000000
     14238       122  OSM       H17G           -0.2085572057      -20.9113097300       -0.3615077616  MEMB      122             0.0000000000
     14239       122  OSM       C18F            1.8148864221      -20.7423078200        0.1677631729  MEMB      122             0.0000000000
     14240       122  OSM       H18F            2.7688493644      -20.4582918135       -0.3258028697  MEMB      122             0.0000000000
     14241       122  OSM       H18G            1.8240632120      -21.8150798155        0.4565508581  MEMB      122             0.0000000000
     14242       122  OSM       H18H            1.6607452012      -20.1298005781        1.0817650715  MEMB      122             0.0000000000
     14243       123  SAPE      N              18.9606567535       -7.0068862892      -17.4083978829  MEMB      123             0.0000000000
     14244       123  SAPE      HN1            19.1470523631       -6.0654305433      -17.0077509777  MEMB      123             0.0000000000
     14245       123  SAPE      HN2            18.2173049706       -7.3956830660      -16.7936902702  MEMB      123             0.0000000000
     14246       123  SAPE      HN3            19.7889848335       -7.6346684793      -17.3714894997  MEMB      123             0.0000000000
     14247       123  SAPE      C12            18.5169193275       -6.8341006884      -18.8530249116  MEMB      123             0.0000000000
     14248       123  SAPE      H12A           18.8541962351       -5.8210651620      -19.1601474545  MEMB      123             0.0000000000
     14249       123  SAPE      H12B           17.4073120661       -6.8244908573      -18.9077997306  MEMB      123             0.0000000000
     14250       123  SAPE      C11            19.0621646139       -7.8780583623      -19.7961139407  MEMB      123             0.0000000000
     14251       123  SAPE      H11A           18.7859710110       -7.7829099779      -20.8680210658  MEMB      123             0.0000000000
     14252       123  SAPE      H11B           18.4633449245       -8.7475147267      -19.4500191322  MEMB      123             0.0000000000
     14253       123  SAPE      P              21.1216686355       -8.9912445098      -20.8501072155  MEMB      123             0.0000000000
     14254       123  SAPE      O13            20.6839058657      -10.3782363674      -20.7379014984  MEMB      123             0.0000000000
     14255       123  SAPE      O14            20.8835278234       -8.3123477320      -22.0950703297  MEMB      123             0.0000000000
     14256       123  SAPE      O12            20.3752678813       -8.2268461154      -19.6381947611  MEMB      123             0.0000000000
     14257       123  SAPE      O11            22.6281483329       -9.0193112318      -20.6211894243  MEMB      123             0.0000000000
     14258       123  SAPE      C1             23.4680039758       -8.1949902726      -19.8218437521  MEMB      123             0.0000000000
     14259       123  SAPE      HA             24.5052875038       -8.3445558483      -20.1906181983  MEMB      123             0.0000000000
     14260       123  SAPE      HB             23.3014406419       -7.0965878251      -19.8123705387  MEMB      123             0.0000000000
     14261       123  SAPE      C2             23.5446112609       -8.6197393864      -18.2914650261  MEMB      123             0.0000000000
     14262       123  SAPE      HS             24.3555628823       -9.3747185920      -18.2097052137  MEMB      123             0.0000000000
     14263       123  SAPE      O21            22.3076739881       -9.2895551743      -17.8266984429  MEMB      123             0.0000000000
     14264       123  SAPE      C21            22.4692902180      -10.5303871759      -17.3704152971  MEMB      123             0.0000000000
     14265       123  SAPE      O22            23.5641506285      -11.0852943564      -17.2730861079  MEMB      123             0.0000000000
     14266       123  SAPE      C22            21.0860115020      -11.1174667533      -17.0845984997  MEMB      123             0.0000000000
     14267       123  SAPE      H2R            20.5313202791      -10.8922673840      -18.0205065433  MEMB      123             0.0000000000
     14268       123  SAPE      H2S            21.2027109824      -12.2079301264      -16.9068569124  MEMB      123             0.0000000000
     14269       123  SAPE      C3             23.9028754060       -7.3810544441      -17.3859522628  MEMB      123             0.0000000000
     14270       123  SAPE      HX             23.1844719189       -6.5455408050      -17.5278472932  MEMB      123             0.0000000000
     14271       123  SAPE      HY             24.9345626400       -6.9906539710      -17.5183516011  MEMB      123             0.0000000000
     14272       123  SAPE      O31            23.8194639869       -7.8443165825      -16.0235050213  MEMB      123             0.0000000000
     14273       123  SAPE      C31            24.0325093029       -7.0356308991      -15.0345231538  MEMB      123             0.0000000000
     14274       123  SAPE      O32            24.5356892969       -5.8970622623      -15.1183960099  MEMB      123             0.0000000000
     14275       123  SAPE      C32            23.6415469551       -7.6978823262      -13.7474115026  MEMB      123             0.0000000000
     14276       123  SAPE      H2X            24.1512433224       -8.6810777427      -13.6587701776  MEMB      123             0.0000000000
     14277       123  SAPE      H2Y            22.5666189796       -7.9699741990      -13.8168160724  MEMB      123             0.0000000000
     14278       123  SAPE      C23            20.3445333673      -10.4109099901      -15.8663398721  MEMB      123             0.0000000000
     14279       123  SAPE      H3R            20.3642844768       -9.3409402787      -16.1648288494  MEMB      123             0.0000000000
     14280       123  SAPE      H3S            20.9284050433      -10.4307197149      -14.9213410200  MEMB      123             0.0000000000
     14281       123  SAPE      C24            18.8558370552      -10.7299456216      -15.6949988011  MEMB      123             0.0000000000
     14282       123  SAPE      H4R            18.2895185422      -10.7532527873      -16.6505411236  MEMB      123             0.0000000000
     14283       123  SAPE      H4S            18.4497994819       -9.8331361631      -15.1800354753  MEMB      123             0.0000000000
     14284       123  SAPE      C25            18.5983980148      -11.9606883344      -14.8881947326  MEMB      123             0.0000000000
     14285       123  SAPE      H5R            18.6247782509      -12.9201108997      -15.4256076567  MEMB      123             0.0000000000
     14286       123  SAPE      C26            18.3592218690      -12.0620622547      -13.5608588668  MEMB      123             0.0000000000
     14287       123  SAPE      H6R            18.0910444368      -13.0504308843      -13.1593508511  MEMB      123             0.0000000000
     14288       123  SAPE      C27            18.2514837597      -11.0377846872      -12.4908852475  MEMB      123             0.0000000000
     14289       123  SAPE      H7R            17.4140342274      -11.2477871425      -11.7916725565  MEMB      123             0.0000000000
     14290       123  SAPE      H7S            17.8068161150      -10.1494379898      -12.9883105588  MEMB      123             0.0000000000
     14291       123  SAPE      C28            19.5515184973      -10.5840166184      -11.7684616163  MEMB      123             0.0000000000
     14292       123  SAPE      H8R            20.4208150093      -11.1996019480      -12.0430118510  MEMB      123             0.0000000000
     14293       123  SAPE      C29            19.5295660366       -9.8123800310      -10.6535817720  MEMB      123             0.0000000000
     14294       123  SAPE      H9R            20.5211709069       -9.4946823633      -10.2989153943  MEMB      123             0.0000000000
     14295       123  SAPE      C210           18.2415803328       -9.2946842756       -9.9419430134  MEMB      123             0.0000000000
     14296       123  SAPE      H10R           18.1692420494      -10.0020672081       -9.0883046781  MEMB      123             0.0000000000
     14297       123  SAPE      H10S           17.2654963188       -9.4928383504      -10.4341987951  MEMB      123             0.0000000000
     14298       123  SAPE      C211           18.2765709680       -7.8192420065       -9.5318825251  MEMB      123             0.0000000000
     14299       123  SAPE      H11R           17.9331000819       -7.0386368788      -10.2266371062  MEMB      123             0.0000000000
     14300       123  SAPE      C212           18.7719821300       -7.3289096055       -8.3627489813  MEMB      123             0.0000000000
     14301       123  SAPE      H12R           18.6616325446       -6.2492723371       -8.1832881328  MEMB      123             0.0000000000
     14302       123  SAPE      C213           19.4249202409       -8.2770496065       -7.3413690378  MEMB      123             0.0000000000
     14303       123  SAPE      H13R           20.1050929719       -8.9995665759       -7.8410243011  MEMB      123             0.0000000000
     14304       123  SAPE      H13S           18.6741526443       -8.9423467031       -6.8638247626  MEMB      123             0.0000000000
     14305       123  SAPE      C214           20.3479591918       -7.5317289859       -6.3896019973  MEMB      123             0.0000000000
     14306       123  SAPE      H14R           21.1611538184       -6.9141357519       -6.7986164667  MEMB      123             0.0000000000
     14307       123  SAPE      C215           20.1835025394       -7.4585274661       -5.0184355377  MEMB      123             0.0000000000
     14308       123  SAPE      H15R           20.8310445354       -6.7874034655       -4.4350981890  MEMB      123             0.0000000000
     14309       123  SAPE      C216           19.0086528307       -8.0790144906       -4.2206296081  MEMB      123             0.0000000000
     14310       123  SAPE      H16R           18.5248279659       -8.9934591936       -4.6256301734  MEMB      123             0.0000000000
     14311       123  SAPE      H16S           18.1942402239       -7.3388279411       -4.0683888167  MEMB      123             0.0000000000
     14312       123  SAPE      C217           19.5610732681       -8.5343583496       -2.8282154557  MEMB      123             0.0000000000
     14313       123  SAPE      H17R           20.5865495089       -8.8929281621       -3.0609120710  MEMB      123             0.0000000000
     14314       123  SAPE      H17S           19.0712345525       -9.4848149800       -2.5265347959  MEMB      123             0.0000000000
     14315       123  SAPE      C218           19.7726862302       -7.3450229661       -1.8323240295  MEMB      123             0.0000000000
     14316       123  SAPE      H18R           18.8131938128       -6.8093418339       -1.6687970856  MEMB      123             0.0000000000
     14317       123  SAPE      H18S           20.5660474310       -6.6364657353       -2.1530198857  MEMB      123             0.0000000000
     14318       123  SAPE      C219           20.2281267417       -7.8346404087       -0.4998182198  MEMB      123             0.0000000000
     14319       123  SAPE      H19R           20.6234198143       -6.9696239406        0.0744727156  MEMB      123             0.0000000000
     14320       123  SAPE      H19S           21.2138679545       -8.3321099585       -0.6229420174  MEMB      123             0.0000000000
     14321       123  SAPE      C220           19.2751500467       -8.7055815234        0.3425686577  MEMB      123             0.0000000000
     14322       123  SAPE      H20R           19.7883727507       -9.2750099692        1.1467287187  MEMB      123             0.0000000000
     14323       123  SAPE      H20S           18.7863404466       -9.4622497597       -0.3076921735  MEMB      123             0.0000000000
     14324       123  SAPE      H20T           18.5146367658       -8.0572229043        0.8279252315  MEMB      123             0.0000000000
     14325       123  SAPE      C33            23.9351161560       -6.8056314461      -12.4622529134  MEMB      123             0.0000000000
     14326       123  SAPE      H3X            23.4215457082       -5.8340954596      -12.6256064589  MEMB      123             0.0000000000
     14327       123  SAPE      H3Y            24.9974713781       -6.4826133207      -12.4250823426  MEMB      123             0.0000000000
     14328       123  SAPE      C34            23.5176054924       -7.3816296774      -11.0872748657  MEMB      123             0.0000000000
     14329       123  SAPE      H4X            24.1137160935       -8.3083898648      -10.9455401489  MEMB      123             0.0000000000
     14330       123  SAPE      H4Y            22.4287150444       -7.5809147389      -11.1817431275  MEMB      123             0.0000000000
     14331       123  SAPE      C35            23.8803702564       -6.3239471820       -9.9813803505  MEMB      123             0.0000000000
     14332       123  SAPE      H5X            23.6048578798       -6.7907962634       -9.0116044498  MEMB      123             0.0000000000
     14333       123  SAPE      H5Y            23.2865278557       -5.3936880667      -10.1090133689  MEMB      123             0.0000000000
     14334       123  SAPE      C36            25.3570404859       -5.9747240398       -9.8475147102  MEMB      123             0.0000000000
     14335       123  SAPE      H6X            25.6770255090       -5.5773218017      -10.8344302184  MEMB      123             0.0000000000
     14336       123  SAPE      H6Y            25.9567699811       -6.9019209294       -9.7252380334  MEMB      123             0.0000000000
     14337       123  SAPE      C37            25.5952696127       -4.9685707249       -8.7261035469  MEMB      123             0.0000000000
     14338       123  SAPE      H7X            25.0358592824       -4.0125282911       -8.8119184174  MEMB      123             0.0000000000
     14339       123  SAPE      H7Y            26.6784025651       -4.7687428003       -8.5804579843  MEMB      123             0.0000000000
     14340       123  SAPE      C38            25.2716765223       -5.5770301794       -7.3482114761  MEMB      123             0.0000000000
     14341       123  SAPE      H8X            25.9269635698       -5.0874319408       -6.5964050331  MEMB      123             0.0000000000
     14342       123  SAPE      H8Y            25.5970521921       -6.6350541668       -7.2531478193  MEMB      123             0.0000000000
     14343       123  SAPE      C39            23.9283245633       -5.2959270696       -6.7582707929  MEMB      123             0.0000000000
     14344       123  SAPE      H9X            23.0569936897       -5.7434465072       -7.2825129726  MEMB      123             0.0000000000
     14345       123  SAPE      H9Y            23.7777003143       -4.1955078469       -6.7316101997  MEMB      123             0.0000000000
     14346       123  SAPE      C310           23.8040100609       -5.8322589887       -5.3614888423  MEMB      123             0.0000000000
     14347       123  SAPE      H10X           22.8150656931       -5.5264362825       -4.9580253497  MEMB      123             0.0000000000
     14348       123  SAPE      H10Y           24.6489598467       -5.2958601319       -4.8791442918  MEMB      123             0.0000000000
     14349       123  SAPE      C311           23.9416046423       -7.4008076089       -5.2784134223  MEMB      123             0.0000000000
     14350       123  SAPE      H11X           24.9426391261       -7.7023219822       -5.6543657115  MEMB      123             0.0000000000
     14351       123  SAPE      H11Y           23.1101610237       -7.8083591555       -5.8923553957  MEMB      123             0.0000000000
     14352       123  SAPE      C312           23.8786895261       -7.8954995446       -3.8327365412  MEMB      123             0.0000000000
     14353       123  SAPE      H12X           22.8364328649       -7.6842268935       -3.5111997788  MEMB      123             0.0000000000
     14354       123  SAPE      H12Y           24.5948890390       -7.3406305104       -3.1896971162  MEMB      123             0.0000000000
     14355       123  SAPE      C313           24.1489347491       -9.3649513848       -3.8383438136  MEMB      123             0.0000000000
     14356       123  SAPE      H13X           25.2542535064       -9.3978036646       -3.9456381463  MEMB      123             0.0000000000
     14357       123  SAPE      H13Y           23.5945968654       -9.7878003053       -4.7033468444  MEMB      123             0.0000000000
     14358       123  SAPE      C314           23.7628215073      -10.0209953696       -2.5090664835  MEMB      123             0.0000000000
     14359       123  SAPE      H14X           23.9712147894      -11.1095227367       -2.5865358783  MEMB      123             0.0000000000
     14360       123  SAPE      H14Y           22.6849554673       -9.9710762022       -2.2444269099  MEMB      123             0.0000000000
     14361       123  SAPE      C315           24.5625240059       -9.5692017483       -1.2960547148  MEMB      123             0.0000000000
     14362       123  SAPE      H15X           24.8055823680       -8.4851650051       -1.3064380808  MEMB      123             0.0000000000
     14363       123  SAPE      H15Y           25.5663020910      -10.0449861620       -1.3155461338  MEMB      123             0.0000000000
     14364       123  SAPE      C316           23.9163263893      -10.0543936898       -0.0002627637  MEMB      123             0.0000000000
     14365       123  SAPE      H16X           23.5469828550      -11.1003587612        0.0618953967  MEMB      123             0.0000000000
     14366       123  SAPE      H16Y           22.9745815337       -9.4675719279        0.0552126423  MEMB      123             0.0000000000
     14367       123  SAPE      C317           24.7371184543       -9.6124012870        1.2976143044  MEMB      123             0.0000000000
     14368       123  SAPE      H17X           25.7689797276      -10.0231033529        1.3277366447  MEMB      123             0.0000000000
     14369       123  SAPE      H17Y           24.2752681314       -9.9779008229        2.2396459054  MEMB      123             0.0000000000
     14370       123  SAPE      C318           24.8486967376       -8.0688357321        1.4798308378  MEMB      123             0.0000000000
     14371       123  SAPE      H18X           23.8292808273       -7.7033858978        1.2317209208  MEMB      123             0.0000000000
     14372       123  SAPE      H18Y           25.4203310968       -7.5896776125        0.6564470129  MEMB      123             0.0000000000
     14373       123  SAPE      H18Z           25.2780471142       -7.6988408863        2.4353859613  MEMB      123             0.0000000000
     14374       124  SAPC      N             -13.8240972554      -16.0011198621      -20.5196543902  MEMB      124             0.0000000000
     14375       124  SAPC      C12           -12.3823591072      -16.4193725750      -20.7269165317  MEMB      124             0.0000000000
     14376       124  SAPC      H12A          -11.6753642456      -16.1342397445      -19.9618952096  MEMB      124             0.0000000000
     14377       124  SAPC      H12B          -12.0259091303      -15.7614714495      -21.5057036690  MEMB      124             0.0000000000
     14378       124  SAPC      C13           -13.9233330091      -14.5301875618      -20.2036975662  MEMB      124             0.0000000000
     14379       124  SAPC      H13A          -13.8918625478      -13.9078802902      -21.0858218119  MEMB      124             0.0000000000
     14380       124  SAPC      H13B          -14.9007728478      -14.3038040050      -19.8039952436  MEMB      124             0.0000000000
     14381       124  SAPC      H13C          -13.2878179132      -14.2027276818      -19.3941973222  MEMB      124             0.0000000000
     14382       124  SAPC      C14           -14.6839495443      -16.3027055249      -21.6710930966  MEMB      124             0.0000000000
     14383       124  SAPC      H14A          -14.7765967920      -17.3783433656      -21.6997246345  MEMB      124             0.0000000000
     14384       124  SAPC      H14B          -15.6462054745      -15.9054778503      -21.3835629083  MEMB      124             0.0000000000
     14385       124  SAPC      H14C          -14.2307966669      -15.7509177731      -22.4813910826  MEMB      124             0.0000000000
     14386       124  SAPC      C15           -14.3328997625      -16.7393002716      -19.2120037178  MEMB      124             0.0000000000
     14387       124  SAPC      H15A          -14.3287950964      -17.8086568743      -19.3631979577  MEMB      124             0.0000000000
     14388       124  SAPC      H15B          -13.6910308065      -16.4936430632      -18.3789030261  MEMB      124             0.0000000000
     14389       124  SAPC      H15C          -15.3143098627      -16.3346316910      -19.0133146116  MEMB      124             0.0000000000
     14390       124  SAPC      C11           -12.0704253841      -17.8624215190      -21.2441147595  MEMB      124             0.0000000000
     14391       124  SAPC      H11A          -11.0277094979      -17.8373696458      -21.6267856899  MEMB      124             0.0000000000
     14392       124  SAPC      H11B          -12.6735635510      -18.1163493522      -22.1419265274  MEMB      124             0.0000000000
     14393       124  SAPC      P             -11.1729972897      -19.3009445209      -19.2993315249  MEMB      124             0.0000000000
     14394       124  SAPC      O13           -10.8483440676      -20.6537208124      -19.7753127248  MEMB      124             0.0000000000
     14395       124  SAPC      O14           -10.1149481515      -18.2087904837      -19.2192897199  MEMB      124             0.0000000000
     14396       124  SAPC      O12           -12.2498151255      -18.7859496126      -20.2760281816  MEMB      124             0.0000000000
     14397       124  SAPC      O11           -11.8534043561      -19.4349446975      -17.8525577853  MEMB      124             0.0000000000
     14398       124  SAPC      C1            -12.8504151913      -20.4735947813      -17.6563259431  MEMB      124             0.0000000000
     14399       124  SAPC      HA            -13.1816336426      -20.9574704130      -18.5999782943  MEMB      124             0.0000000000
     14400       124  SAPC      HB            -12.3025334324      -21.3002660518      -17.1555651860  MEMB      124             0.0000000000
     14401       124  SAPC      C2            -13.9943998780      -19.8705715279      -16.9021945902  MEMB      124             0.0000000000
     14402       124  SAPC      HS            -14.4775490662      -19.1717673526      -17.6181280716  MEMB      124             0.0000000000
     14403       124  SAPC      O21           -13.5618989330      -19.1955882119      -15.7295714732  MEMB      124             0.0000000000
     14404       124  SAPC      C21           -14.5661274039      -18.5501934163      -15.1740845359  MEMB      124             0.0000000000
     14405       124  SAPC      O22           -15.7463159069      -18.4190220569      -15.5846436629  MEMB      124             0.0000000000
     14406       124  SAPC      C22           -14.0416786046      -17.9597523944      -13.8678106142  MEMB      124             0.0000000000
     14407       124  SAPC      H2R           -13.7968428551      -18.7797883728      -13.1593490380  MEMB      124             0.0000000000
     14408       124  SAPC      H2S           -13.0597081659      -17.4814134055      -14.0709039144  MEMB      124             0.0000000000
     14409       124  SAPC      C3            -14.8939172935      -21.1119406933      -16.5638470733  MEMB      124             0.0000000000
     14410       124  SAPC      HX            -15.2518630316      -21.7260375341      -17.4177093708  MEMB      124             0.0000000000
     14411       124  SAPC      HY            -15.7543815668      -20.7608329722      -15.9550399653  MEMB      124             0.0000000000
     14412       124  SAPC      O31           -14.0480415903      -22.0560708845      -15.8161390300  MEMB      124             0.0000000000
     14413       124  SAPC      C31           -14.5244736232      -22.7220945626      -14.7676863749  MEMB      124             0.0000000000
     14414       124  SAPC      O32           -15.6444431549      -22.5986320418      -14.3320197889  MEMB      124             0.0000000000
     14415       124  SAPC      C32           -13.5045452527      -23.8085024935      -14.5037353534  MEMB      124             0.0000000000
     14416       124  SAPC      H2X           -13.3712955656      -24.6007347411      -15.2711557572  MEMB      124             0.0000000000
     14417       124  SAPC      H2Y           -13.8037845033      -24.3831422385      -13.6012019221  MEMB      124             0.0000000000
     14418       124  SAPC      C23           -15.0353131468      -16.9108739501      -13.2799878147  MEMB      124             0.0000000000
     14419       124  SAPC      H3R           -16.0418118510      -17.3418786120      -13.0915297906  MEMB      124             0.0000000000
     14420       124  SAPC      H3S           -15.1405385552      -16.0592831069      -13.9857083940  MEMB      124             0.0000000000
     14421       124  SAPC      C24           -14.5674810746      -16.3934425050      -11.8408593464  MEMB      124             0.0000000000
     14422       124  SAPC      H4R           -13.5256445019      -16.1368685482      -12.1290730656  MEMB      124             0.0000000000
     14423       124  SAPC      H4S           -14.5686188747      -17.2745338748      -11.1641033921  MEMB      124             0.0000000000
     14424       124  SAPC      C25           -15.3576965178      -15.2059440414      -11.3806306393  MEMB      124             0.0000000000
     14425       124  SAPC      H5R           -15.1221070454      -14.2876490070      -11.9385119710  MEMB      124             0.0000000000
     14426       124  SAPC      C26           -16.1617357138      -15.0930313889      -10.3065558102  MEMB      124             0.0000000000
     14427       124  SAPC      H6R           -16.5955985736      -14.1113788011      -10.0654717431  MEMB      124             0.0000000000
     14428       124  SAPC      C27           -16.4857824713      -16.1051423576       -9.2980954741  MEMB      124             0.0000000000
     14429       124  SAPC      H7R           -17.0801108521      -15.4957949922       -8.5840988338  MEMB      124             0.0000000000
     14430       124  SAPC      H7S           -15.5360693316      -16.3914223560       -8.7976858958  MEMB      124             0.0000000000
     14431       124  SAPC      C28           -17.2592152834      -17.2453443235       -9.8537817692  MEMB      124             0.0000000000
     14432       124  SAPC      H8R           -18.1972247370      -16.9829519097      -10.3649450486  MEMB      124             0.0000000000
     14433       124  SAPC      C29           -16.9311636327      -18.5798338231       -9.8661832994  MEMB      124             0.0000000000
     14434       124  SAPC      H9R           -17.5520988463      -19.2910574664      -10.4306299060  MEMB      124             0.0000000000
     14435       124  SAPC      C210          -15.6680874061      -19.0622300740       -9.2570546511  MEMB      124             0.0000000000
     14436       124  SAPC      H10R          -14.7845425345      -18.3910143830       -9.3130811841  MEMB      124             0.0000000000
     14437       124  SAPC      H10S          -15.2634636879      -19.8639909968       -9.9111034504  MEMB      124             0.0000000000
     14438       124  SAPC      C211          -15.8482950508      -19.6768734687       -7.8534850249  MEMB      124             0.0000000000
     14439       124  SAPC      H11R          -16.8782638733      -19.6457310153       -7.4685253423  MEMB      124             0.0000000000
     14440       124  SAPC      C212          -14.9021381841      -20.2219204040       -7.0958583509  MEMB      124             0.0000000000
     14441       124  SAPC      H12R          -15.2100502023      -20.5719312818       -6.0995233584  MEMB      124             0.0000000000
     14442       124  SAPC      C213          -13.4392129300      -20.3357046709       -7.3635231485  MEMB      124             0.0000000000
     14443       124  SAPC      H13R          -13.1010875332      -19.8540327394       -8.3058522399  MEMB      124             0.0000000000
     14444       124  SAPC      H13S          -13.2532595395      -21.3908516991       -7.6574736576  MEMB      124             0.0000000000
     14445       124  SAPC      C214          -12.5540742914      -20.0819525701       -6.1476970006  MEMB      124             0.0000000000
     14446       124  SAPC      H14R          -11.8395700715      -19.2579577925       -6.2909335495  MEMB      124             0.0000000000
     14447       124  SAPC      C215          -12.3914119306      -20.8196017507       -5.0172599295  MEMB      124             0.0000000000
     14448       124  SAPC      H15R          -11.7309367371      -20.5132229343       -4.1926970196  MEMB      124             0.0000000000
     14449       124  SAPC      C216          -13.0974672240      -22.0887087137       -4.7309133725  MEMB      124             0.0000000000
     14450       124  SAPC      H16R          -13.4402312996      -22.6579040153       -5.6213345966  MEMB      124             0.0000000000
     14451       124  SAPC      H16S          -13.9381929333      -21.9506179164       -4.0178685766  MEMB      124             0.0000000000
     14452       124  SAPC      C217          -12.2580908394      -23.2470372494       -4.1010621505  MEMB      124             0.0000000000
     14453       124  SAPC      H17R          -11.2285571401      -23.1955557836       -4.5154676548  MEMB      124             0.0000000000
     14454       124  SAPC      H17S          -12.6259267873      -24.2583139802       -4.3773533066  MEMB      124             0.0000000000
     14455       124  SAPC      C218          -12.2400613307      -23.2082836141       -2.6093384449  MEMB      124             0.0000000000
     14456       124  SAPC      H18R          -11.8895892250      -22.2114524612       -2.2660914950  MEMB      124             0.0000000000
     14457       124  SAPC      H18S          -11.5437070976      -24.0223968404       -2.3150055178  MEMB      124             0.0000000000
     14458       124  SAPC      C219          -13.5546705614      -23.5946808295       -1.9127774092  MEMB      124             0.0000000000
     14459       124  SAPC      H19R          -13.7833298410      -24.6575100576       -2.1417535231  MEMB      124             0.0000000000
     14460       124  SAPC      H19S          -14.4352611570      -23.0677041252       -2.3384259618  MEMB      124             0.0000000000
     14461       124  SAPC      C220          -13.5814248253      -23.4339430307       -0.3858684289  MEMB      124             0.0000000000
     14462       124  SAPC      H20R          -13.2595483071      -22.4031938723       -0.1245780623  MEMB      124             0.0000000000
     14463       124  SAPC      H20S          -12.8312060254      -24.0349791621        0.1711319522  MEMB      124             0.0000000000
     14464       124  SAPC      H20T          -14.6224588909      -23.5633252858       -0.0200396308  MEMB      124             0.0000000000
     14465       124  SAPC      C33           -12.1123953641      -23.1528760229      -14.2412890791  MEMB      124             0.0000000000
     14466       124  SAPC      H3X           -11.7845180942      -22.6909043153      -15.1970086682  MEMB      124             0.0000000000
     14467       124  SAPC      H3Y           -11.4926265873      -24.0625812893      -14.0908096849  MEMB      124             0.0000000000
     14468       124  SAPC      C34           -11.9962308624      -22.3886856280      -12.9513196639  MEMB      124             0.0000000000
     14469       124  SAPC      H4X           -12.2684239144      -23.1457461325      -12.1851012143  MEMB      124             0.0000000000
     14470       124  SAPC      H4Y           -12.7379123395      -21.5617612572      -12.9719544034  MEMB      124             0.0000000000
     14471       124  SAPC      C35           -10.5763485294      -21.7701868061      -12.8163976113  MEMB      124             0.0000000000
     14472       124  SAPC      H5X           -10.3693681988      -21.4273705840      -13.8527169261  MEMB      124             0.0000000000
     14473       124  SAPC      H5Y            -9.8640342553      -22.6136272080      -12.6917484177  MEMB      124             0.0000000000
     14474       124  SAPC      C36           -10.3846117344      -20.6878587641      -11.7253216367  MEMB      124             0.0000000000
     14475       124  SAPC      H6X            -9.3355055226      -20.3431502619      -11.8472755344  MEMB      124             0.0000000000
     14476       124  SAPC      H6Y           -10.4481680663      -21.0585829289      -10.6799287701  MEMB      124             0.0000000000
     14477       124  SAPC      C37           -11.2934063695      -19.4226163172      -11.8838915022  MEMB      124             0.0000000000
     14478       124  SAPC      H7X           -12.3470565962      -19.6078366002      -11.5841666603  MEMB      124             0.0000000000
     14479       124  SAPC      H7Y           -11.3368806603      -19.2902742541      -12.9861241993  MEMB      124             0.0000000000
     14480       124  SAPC      C38           -10.8349915994      -18.1442992357      -11.0572092927  MEMB      124             0.0000000000
     14481       124  SAPC      H8X           -10.8987502020      -17.2007412106      -11.6402648205  MEMB      124             0.0000000000
     14482       124  SAPC      H8Y            -9.7708563184      -18.3444952098      -10.8084958778  MEMB      124             0.0000000000
     14483       124  SAPC      C39           -11.5824280289      -17.7999878954       -9.7252289870  MEMB      124             0.0000000000
     14484       124  SAPC      H9X           -11.3023543571      -18.5407934472       -8.9460714192  MEMB      124             0.0000000000
     14485       124  SAPC      H9Y           -12.6795617017      -17.7706569931       -9.8977349122  MEMB      124             0.0000000000
     14486       124  SAPC      C310          -11.1470343708      -16.3781026579       -9.2120009744  MEMB      124             0.0000000000
     14487       124  SAPC      H10X          -11.6490872071      -15.6251812303       -9.8564958405  MEMB      124             0.0000000000
     14488       124  SAPC      H10Y          -10.0650346717      -16.3154528041       -9.4562804673  MEMB      124             0.0000000000
     14489       124  SAPC      C311          -11.3970076163      -16.0995732304       -7.6426729637  MEMB      124             0.0000000000
     14490       124  SAPC      H11X          -11.0610610521      -15.0746008589       -7.3764157059  MEMB      124             0.0000000000
     14491       124  SAPC      H11Y          -10.7266893841      -16.8301767504       -7.1414609310  MEMB      124             0.0000000000
     14492       124  SAPC      C312          -12.8770551589      -16.2254178491       -7.2300727566  MEMB      124             0.0000000000
     14493       124  SAPC      H12X          -13.2819822100      -17.2259564392       -7.4932798493  MEMB      124             0.0000000000
     14494       124  SAPC      H12Y          -13.4950259890      -15.4931211416       -7.7923663208  MEMB      124             0.0000000000
     14495       124  SAPC      C313          -12.9814445671      -16.1576411988       -5.7078410660  MEMB      124             0.0000000000
     14496       124  SAPC      H13X          -12.9420612775      -15.0784349249       -5.4469123601  MEMB      124             0.0000000000
     14497       124  SAPC      H13Y          -12.0684485268      -16.5818234250       -5.2379165715  MEMB      124             0.0000000000
     14498       124  SAPC      C314          -14.2010992375      -16.9263924867       -5.1382236248  MEMB      124             0.0000000000
     14499       124  SAPC      H14X          -14.6347502883      -17.8348284461       -5.6083424257  MEMB      124             0.0000000000
     14500       124  SAPC      H14Y          -15.0489415830      -16.2203691958       -5.2686672516  MEMB      124             0.0000000000
     14501       124  SAPC      C315          -14.1800876763      -17.2302985687       -3.6122186695  MEMB      124             0.0000000000
     14502       124  SAPC      H15X          -13.8968401699      -16.3157994265       -3.0484949990  MEMB      124             0.0000000000
     14503       124  SAPC      H15Y          -13.4230747277      -18.0230803519       -3.4312503085  MEMB      124             0.0000000000
     14504       124  SAPC      C316          -15.5470010054      -17.8486753725       -3.2007194912  MEMB      124             0.0000000000
     14505       124  SAPC      H16X          -15.6930624335      -18.8156328255       -3.7279578244  MEMB      124             0.0000000000
     14506       124  SAPC      H16Y          -16.4107819057      -17.1930099420       -3.4421874326  MEMB      124             0.0000000000
     14507       124  SAPC      C317          -15.6381643573      -17.8629890545       -1.6580084846  MEMB      124             0.0000000000
     14508       124  SAPC      H17X          -15.9604160089      -16.8350509395       -1.3863131481  MEMB      124             0.0000000000
     14509       124  SAPC      H17Y          -14.5930196390      -17.9853371292       -1.3016034044  MEMB      124             0.0000000000
     14510       124  SAPC      C318          -16.7056171372      -18.7540463808       -1.0157835989  MEMB      124             0.0000000000
     14511       124  SAPC      H18X          -16.6846800249      -18.6483436586        0.0899796021  MEMB      124             0.0000000000
     14512       124  SAPC      H18Y          -16.5718037097      -19.8205269614       -1.2969126562  MEMB      124             0.0000000000
     14513       124  SAPC      H18Z          -17.6642127608      -18.3428744903       -1.3983441125  MEMB      124             0.0000000000
     14514       125  OSM       N               3.0180119518       20.2633315638      -20.8048958379  MEMB      125             0.0000000000
     14515       125  OSM       C15             3.5909871280       20.9083953858      -19.5559752703  MEMB      125             0.0000000000
     14516       125  OSM       H15A            4.6470511686       20.6823723361      -19.5494465973  MEMB      125             0.0000000000
     14517       125  OSM       H15B            3.2113627720       20.4232529982      -18.6688890460  MEMB      125             0.0000000000
     14518       125  OSM       H15C            3.3816508483       21.9600275253      -19.4269479647  MEMB      125             0.0000000000
     14519       125  OSM       C14             3.6651888743       18.8847979266      -21.0042269519  MEMB      125             0.0000000000
     14520       125  OSM       H14A            3.2805776173       18.3122886148      -21.8353149291  MEMB      125             0.0000000000
     14521       125  OSM       H14B            3.5100601518       18.2790068473      -20.1236862243  MEMB      125             0.0000000000
     14522       125  OSM       H14C            4.7253537550       19.0031767362      -21.1728598110  MEMB      125             0.0000000000
     14523       125  OSM       C13             1.5735336838       20.0391346315      -20.6916764098  MEMB      125             0.0000000000
     14524       125  OSM       H13A            1.2012773472       19.3777929757      -21.4600853952  MEMB      125             0.0000000000
     14525       125  OSM       H13B            1.2068864915       21.0530663257      -20.7542257359  MEMB      125             0.0000000000
     14526       125  OSM       H13C            1.3933175915       19.6784091086      -19.6897786139  MEMB      125             0.0000000000
     14527       125  OSM       C12             3.4361274376       21.0657924504      -22.0232844799  MEMB      125             0.0000000000
     14528       125  OSM       H12A            2.6903544769       20.9080743994      -22.7883646931  MEMB      125             0.0000000000
     14529       125  OSM       H12B            4.4444250876       20.8588828411      -22.3502772304  MEMB      125             0.0000000000
     14530       125  OSM       C11             3.4585075149       22.6556453951      -21.8737705940  MEMB      125             0.0000000000
     14531       125  OSM       H11A            3.4974538428       23.1064894157      -22.8884349700  MEMB      125             0.0000000000
     14532       125  OSM       H11B            4.3595499479       22.7679108827      -21.2335831050  MEMB      125             0.0000000000
     14533       125  OSM       P               2.0496763644       24.7260112005      -21.0360961189  MEMB      125             0.0000000000
     14534       125  OSM       O13             2.3164200000       25.3451210026      -22.3774174331  MEMB      125             0.0000000000
     14535       125  OSM       O14             0.6718675051       24.8399027005      -20.4510227101  MEMB      125             0.0000000000
     14536       125  OSM       O11             3.1410250285       25.1679341214      -19.9822925005  MEMB      125             0.0000000000
     14537       125  OSM       O12             2.2994998972       23.1824388852      -21.1993416914  MEMB      125             0.0000000000
     14538       125  OSM       C1S             3.2455580035       24.5955330790      -18.6657018700  MEMB      125             0.0000000000
     14539       125  OSM       H1S             4.1125621877       23.9053970274      -18.7453071017  MEMB      125             0.0000000000
     14540       125  OSM       H1T             2.3690831034       23.9692334293      -18.3939272544  MEMB      125             0.0000000000
     14541       125  OSM       NF              3.7450681022       24.9243393303      -16.2455817560  MEMB      125             0.0000000000
     14542       125  OSM       HNF             3.0834170773       25.1077347402      -15.5226759740  MEMB      125             0.0000000000
     14543       125  OSM       C2S             3.5491952832       25.6003474035      -17.5056180788  MEMB      125             0.0000000000
     14544       125  OSM       H2S             4.5381333902       26.0570567569      -17.7241101773  MEMB      125             0.0000000000
     14545       125  OSM       C3S             2.3251455081       26.5221009353      -17.4614571513  MEMB      125             0.0000000000
     14546       125  OSM       H3S             1.4885366191       25.8614611644      -17.7744451167  MEMB      125             0.0000000000
     14547       125  OSM       O3              2.5811055490       27.5350416459      -18.3436514403  MEMB      125             0.0000000000
     14548       125  OSM       HO3             3.3970115757       27.4238951603      -18.8371528771  MEMB      125             0.0000000000
     14549       125  OSM       C4S             2.0758264762       27.0022583535      -16.0356145864  MEMB      125             0.0000000000
     14550       125  OSM       H4S             2.8286831576       27.5445465941      -15.4447418852  MEMB      125             0.0000000000
     14551       125  OSM       C5S             1.0853985652       26.5662260507      -15.2937249218  MEMB      125             0.0000000000
     14552       125  OSM       H5S             0.3515892613       25.9243864118      -15.8032008677  MEMB      125             0.0000000000
     14553       125  OSM       C6S             0.7612361180       26.9926572299      -13.8412183246  MEMB      125             0.0000000000
     14554       125  OSM       H6S            -0.3410956824       27.1151343458      -13.9059067442  MEMB      125             0.0000000000
     14555       125  OSM       H6T             1.2220952314       27.9714843167      -13.5885776842  MEMB      125             0.0000000000
     14556       125  OSM       C7S             1.3189180685       26.0017058394      -12.7619755037  MEMB      125             0.0000000000
     14557       125  OSM       H7S             2.4212597192       26.1389448786      -12.7801325554  MEMB      125             0.0000000000
     14558       125  OSM       H7T             1.0997812501       25.0190085445      -13.2316625944  MEMB      125             0.0000000000
     14559       125  OSM       C8S             0.8221317077       26.1013855790      -11.3528140967  MEMB      125             0.0000000000
     14560       125  OSM       H8S            -0.2833572731       25.9937001123      -11.3777019095  MEMB      125             0.0000000000
     14561       125  OSM       H8T             1.0337487135       27.1234473142      -10.9721186074  MEMB      125             0.0000000000
     14562       125  OSM       C9S             1.3871761835       25.0518933197      -10.3540710842  MEMB      125             0.0000000000
     14563       125  OSM       H9S             2.4840880109       24.9180032526      -10.4688696163  MEMB      125             0.0000000000
     14564       125  OSM       H9T             0.9941526247       24.0658936313      -10.6821828356  MEMB      125             0.0000000000
     14565       125  OSM       C10S            1.1229438464       25.1774291853       -8.8486441850  MEMB      125             0.0000000000
     14566       125  OSM       H10S            0.0368699556       25.0528498286       -8.6505416860  MEMB      125             0.0000000000
     14567       125  OSM       H10T            1.5633760162       26.1532092194       -8.5516694496  MEMB      125             0.0000000000
     14568       125  OSM       C11S            1.8490972264       24.2035847994       -7.8497546029  MEMB      125             0.0000000000
     14569       125  OSM       H11S            1.9518167113       23.2193694817       -8.3548186531  MEMB      125             0.0000000000
     14570       125  OSM       H11T            1.3267194496       24.1521667066       -6.8705719267  MEMB      125             0.0000000000
     14571       125  OSM       C12S            3.3101482913       24.7738507737       -7.5650887160  MEMB      125             0.0000000000
     14572       125  OSM       H12S            3.3263646637       25.8723680043       -7.7303696377  MEMB      125             0.0000000000
     14573       125  OSM       H12T            3.9888808318       24.5250668969       -8.4087409842  MEMB      125             0.0000000000
     14574       125  OSM       C13S            3.8756382446       24.1820899754       -6.2707426648  MEMB      125             0.0000000000
     14575       125  OSM       H13S            3.8369870132       23.0780884342       -6.1523889625  MEMB      125             0.0000000000
     14576       125  OSM       H13T            3.2831970557       24.6165849888       -5.4373467483  MEMB      125             0.0000000000
     14577       125  OSM       C14S            5.3661250933       24.5021731442       -6.0235685226  MEMB      125             0.0000000000
     14578       125  OSM       H14S            5.5802582160       25.5919362090       -5.9938299158  MEMB      125             0.0000000000
     14579       125  OSM       H14T            6.0574245711       24.0484705638       -6.7655795219  MEMB      125             0.0000000000
     14580       125  OSM       C15S            5.8853941574       23.9949868628       -4.6345947834  MEMB      125             0.0000000000
     14581       125  OSM       H15S            5.5114499823       24.7475079873       -3.9078221523  MEMB      125             0.0000000000
     14582       125  OSM       H15T            6.9950105752       23.9923324751       -4.5792313583  MEMB      125             0.0000000000
     14583       125  OSM       C16S            5.4346555389       22.5478898741       -4.2724716794  MEMB      125             0.0000000000
     14584       125  OSM       H16S            5.5527836730       21.9014982599       -5.1683199909  MEMB      125             0.0000000000
     14585       125  OSM       H16T            4.4039382867       22.4339968964       -3.8737597410  MEMB      125             0.0000000000
     14586       125  OSM       C17S            6.4477009089       21.9935357065       -3.2192186875  MEMB      125             0.0000000000
     14587       125  OSM       H17S            6.5248056704       22.5603522589       -2.2668029925  MEMB      125             0.0000000000
     14588       125  OSM       H17T            7.4572439994       22.1036635051       -3.6697913348  MEMB      125             0.0000000000
     14589       125  OSM       C18S            6.5095068570       20.4384453328       -3.0375005298  MEMB      125             0.0000000000
     14590       125  OSM       H18S            6.2878699864       19.9220583369       -3.9959084007  MEMB      125             0.0000000000
     14591       125  OSM       H18T            5.9119415479       20.0596277843       -2.1809194424  MEMB      125             0.0000000000
     14592       125  OSM       H18U            7.5360296128       20.0850455286       -2.8015340534  MEMB      125             0.0000000000
     14593       125  OSM       C1F             4.7594441391       24.0148940273      -16.0333544812  MEMB      125             0.0000000000
     14594       125  OSM       OF              5.6295012263       23.7223602914      -16.8723579904  MEMB      125             0.0000000000
     14595       125  OSM       C2F             4.7681119271       23.2698534062      -14.6699750229  MEMB      125             0.0000000000
     14596       125  OSM       H2F             4.1573306822       22.3421127047      -14.6937347548  MEMB      125             0.0000000000
     14597       125  OSM       H2G             4.5390769488       24.1208488038      -13.9934615000  MEMB      125             0.0000000000
     14598       125  OSM       C3F             6.0914334654       22.8374894917      -14.1075175309  MEMB      125             0.0000000000
     14599       125  OSM       H3F             6.7855407937       23.6628596180      -13.8404973246  MEMB      125             0.0000000000
     14600       125  OSM       H3G             6.7036528382       22.3019155383      -14.8642664165  MEMB      125             0.0000000000
     14601       125  OSM       C4F             5.9658832162       21.9276841131      -12.8664038318  MEMB      125             0.0000000000
     14602       125  OSM       H4F             6.9713533186       22.0233433754      -12.4035861288  MEMB      125             0.0000000000
     14603       125  OSM       H4G             5.9079301387       20.9108493536      -13.3102616660  MEMB      125             0.0000000000
     14604       125  OSM       C5F             4.9227843824       22.3576833076      -11.8471762217  MEMB      125             0.0000000000
     14605       125  OSM       H5F             3.9653097499       22.4309571250      -12.4059197322  MEMB      125             0.0000000000
     14606       125  OSM       H5G             5.1530603299       23.2905053681      -11.2893792154  MEMB      125             0.0000000000
     14607       125  OSM       C6F             4.5460019958       21.3386552545      -10.7982173981  MEMB      125             0.0000000000
     14608       125  OSM       H6F             4.0980140460       20.4188272677      -11.2312810470  MEMB      125             0.0000000000
     14609       125  OSM       H6G             3.6562656907       21.8059653766      -10.3246020519  MEMB      125             0.0000000000
     14610       125  OSM       C7F             5.6151138055       20.9672146483       -9.7165358038  MEMB      125             0.0000000000
     14611       125  OSM       H7F             6.0282227050       21.8581818363       -9.1970748810  MEMB      125             0.0000000000
     14612       125  OSM       H7G             6.4245791471       20.4102956185      -10.2351187062  MEMB      125             0.0000000000
     14613       125  OSM       C8F             5.0095501031       20.0965117334       -8.5639054899  MEMB      125             0.0000000000
     14614       125  OSM       H8F             4.1934075251       20.6681722746       -8.0725438552  MEMB      125             0.0000000000
     14615       125  OSM       H8G             5.8238296108       19.9325987551       -7.8260689255  MEMB      125             0.0000000000
     14616       125  OSM       C9F             4.5811526491       18.6906506750       -8.9624970717  MEMB      125             0.0000000000
     14617       125  OSM       H9F             5.2942398304       18.1383328722       -9.5921409092  MEMB      125             0.0000000000
     14618       125  OSM       C10F            3.4974896162       18.0682915504       -8.5000401323  MEMB      125             0.0000000000
     14619       125  OSM       H10F            3.4563702976       16.9759082634       -8.6225503844  MEMB      125             0.0000000000
     14620       125  OSM       C11F            2.5701906385       18.6251171602       -7.5105794953  MEMB      125             0.0000000000
     14621       125  OSM       H11F            1.6634055847       17.9834446425       -7.5284093122  MEMB      125             0.0000000000
     14622       125  OSM       H11G            2.2911350503       19.6713666505       -7.7591971392  MEMB      125             0.0000000000
     14623       125  OSM       C12F            2.9444104206       18.5517066697       -5.9665842342  MEMB      125             0.0000000000
     14624       125  OSM       H12F            3.9054213031       19.1091059089       -5.9573621071  MEMB      125             0.0000000000
     14625       125  OSM       H12G            3.0909037145       17.5023790275       -5.6322598020  MEMB      125             0.0000000000
     14626       125  OSM       C13F            1.9889374042       19.2183770703       -4.9725584169  MEMB      125             0.0000000000
     14627       125  OSM       H13F            2.4573480355       19.0266353911       -3.9835442157  MEMB      125             0.0000000000
     14628       125  OSM       H13G            0.9643542924       18.7952900379       -5.0470442735  MEMB      125             0.0000000000
     14629       125  OSM       C14F            1.6408870169       20.7467143427       -5.1293601768  MEMB      125             0.0000000000
     14630       125  OSM       H14F            0.9871624832       20.9022412078       -6.0141060756  MEMB      125             0.0000000000
     14631       125  OSM       H14G            2.5776998491       21.3435097857       -5.1061616979  MEMB      125             0.0000000000
     14632       125  OSM       C15F            0.7733558611       21.2537128497       -3.9127677448  MEMB      125             0.0000000000
     14633       125  OSM       H15F            1.3591757326       20.8840551209       -3.0441539143  MEMB      125             0.0000000000
     14634       125  OSM       H15G           -0.1806129557       20.6979469151       -3.7887163110  MEMB      125             0.0000000000
     14635       125  OSM       C16F            0.5852051860       22.7863141657       -4.0342386381  MEMB      125             0.0000000000
     14636       125  OSM       H16F           -0.0524308300       23.1564196571       -4.8653597405  MEMB      125             0.0000000000
     14637       125  OSM       H16G            1.6294374123       23.1363455177       -4.1804517901  MEMB      125             0.0000000000
     14638       125  OSM       C17F           -0.0498881530       23.3178062731       -2.7261881068  MEMB      125             0.0000000000
     14639       125  OSM       H17F           -1.1048690932       23.0800340320       -2.4716281381  MEMB      125             0.0000000000
     14640       125  OSM       H17G           -0.0571723758       24.4204308009       -2.5902173991  MEMB      125             0.0000000000
     14641       125  OSM       C18F            0.8150983717       23.0014520073       -1.4589535674  MEMB      125             0.0000000000
     14642       125  OSM       H18F            0.4659911088       23.3623161651       -0.4678839698  MEMB      125             0.0000000000
     14643       125  OSM       H18G            1.8028202148       23.4653511678       -1.6675778726  MEMB      125             0.0000000000
     14644       125  OSM       H18H            0.8554859359       21.8993086914       -1.3249019707  MEMB      125             0.0000000000
     14645       126  CHL1      C3             15.6031908100      -17.1864608575      -17.3425500000  MEMB      126             0.0000000000
     14646       126  CHL1      H3             16.7078824737      -17.2692296079      -17.4269300000  MEMB      126             0.0000000000
     14647       126  CHL1      O3             15.0253635900      -17.2003059425      -18.6574500000  MEMB      126             0.0000000000
     14648       126  CHL1      H3'            15.2913161438      -17.9849737550      -19.1423800000  MEMB      126             0.0000000000
     14649       126  CHL1      C4             15.0895131464      -18.4096847384      -16.6138200000  MEMB      126             0.0000000000
     14650       126  CHL1      H4A            13.9821077090      -18.4988228810      -16.6106100000  MEMB      126             0.0000000000
     14651       126  CHL1      H4B            15.4333230022      -19.3513595018      -17.0927600000  MEMB      126             0.0000000000
     14652       126  CHL1      C5             15.4729419966      -18.4016144646      -15.1584700000  MEMB      126             0.0000000000
     14653       126  CHL1      C6             16.2437372473      -19.3144950185      -14.5534400000  MEMB      126             0.0000000000
     14654       126  CHL1      H6             16.6350371239      -20.1303661014      -15.1789300000  MEMB      126             0.0000000000
     14655       126  CHL1      C7             16.5117702126      -19.3319168655      -13.0962500000  MEMB      126             0.0000000000
     14656       126  CHL1      H7A            16.4366427633      -20.3631546763      -12.6897800000  MEMB      126             0.0000000000
     14657       126  CHL1      H7B            17.5149812302      -18.9057346016      -12.8812100000  MEMB      126             0.0000000000
     14658       126  CHL1      C8             15.4913725037      -18.5259002152      -12.2129800000  MEMB      126             0.0000000000
     14659       126  CHL1      H8             14.6024257415      -19.1911650849      -12.2519100000  MEMB      126             0.0000000000
     14660       126  CHL1      C14            15.8753379052      -18.3718700657      -10.6853000000  MEMB      126             0.0000000000
     14661       126  CHL1      H14            16.8179863012      -17.8040918772      -10.8381000000  MEMB      126             0.0000000000
     14662       126  CHL1      C15            16.2368813781      -19.6592468322       -9.9129700000  MEMB      126             0.0000000000
     14663       126  CHL1      H15A           15.3523659120      -20.3175542516      -10.0493400000  MEMB      126             0.0000000000
     14664       126  CHL1      H15B           17.1233998664      -20.1394481813      -10.3796600000  MEMB      126             0.0000000000
     14665       126  CHL1      C16            16.3318406631      -19.2117454558       -8.4747100000  MEMB      126             0.0000000000
     14666       126  CHL1      H16A           15.8101710277      -19.8133746863       -7.6999700000  MEMB      126             0.0000000000
     14667       126  CHL1      H16B           17.3765224281      -19.0393351604       -8.1381800000  MEMB      126             0.0000000000
     14668       126  CHL1      C17            15.7280490207      -17.7564244399       -8.4535200000  MEMB      126             0.0000000000
     14669       126  CHL1      H17            16.6013151722      -17.0701114099       -8.4268300000  MEMB      126             0.0000000000
     14670       126  CHL1      C13            14.9901611350      -17.5541631873       -9.8199400000  MEMB      126             0.0000000000
     14671       126  CHL1      C18            13.6024646803      -18.2698432399       -9.7502700000  MEMB      126             0.0000000000
     14672       126  CHL1      H18A           13.6508169883      -19.2899752535       -9.3128800000  MEMB      126             0.0000000000
     14673       126  CHL1      H18B           12.8953700953      -17.5811528912       -9.2403200000  MEMB      126             0.0000000000
     14674       126  CHL1      H18C           13.1772516033      -18.3373474299      -10.7744500000  MEMB      126             0.0000000000
     14675       126  CHL1      C12            14.9807691853      -16.1466656454      -10.4930100000  MEMB      126             0.0000000000
     14676       126  CHL1      H12A           14.3105623239      -15.4350322116       -9.9650700000  MEMB      126             0.0000000000
     14677       126  CHL1      H12B           16.0216476295      -15.8013794994      -10.6709800000  MEMB      126             0.0000000000
     14678       126  CHL1      C11            14.5024200790      -16.2292033341      -11.9570400000  MEMB      126             0.0000000000
     14679       126  CHL1      H11A           13.4261159176      -16.5045984538      -11.9626100000  MEMB      126             0.0000000000
     14680       126  CHL1      H11B           14.6289805044      -15.2543634751      -12.4747100000  MEMB      126             0.0000000000
     14681       126  CHL1      C9             15.3357525227      -17.1828682281      -12.8747500000  MEMB      126             0.0000000000
     14682       126  CHL1      H9             16.3670213930      -16.7722817138      -12.8275500000  MEMB      126             0.0000000000
     14683       126  CHL1      C10            14.8574739541      -17.2134189230      -14.3139900000  MEMB      126             0.0000000000
     14684       126  CHL1      C19            13.3328352306      -17.1573265441      -14.4000400000  MEMB      126             0.0000000000
     14685       126  CHL1      H19A           12.8496190743      -18.0082225138      -13.8739200000  MEMB      126             0.0000000000
     14686       126  CHL1      H19B           12.8054171418      -16.2706304489      -13.9878100000  MEMB      126             0.0000000000
     14687       126  CHL1      H19C           13.0567876275      -17.1685124999      -15.4761400000  MEMB      126             0.0000000000
     14688       126  CHL1      C1             15.4473433500      -15.9916678412      -15.1150900000  MEMB      126             0.0000000000
     14689       126  CHL1      H1A            14.9219132156      -15.1177481670      -14.6740600000  MEMB      126             0.0000000000
     14690       126  CHL1      H1B            16.5502931396      -15.8650991482      -15.0727100000  MEMB      126             0.0000000000
     14691       126  CHL1      C2             15.1105981482      -15.9389545072      -16.6442200000  MEMB      126             0.0000000000
     14692       126  CHL1      H2A            15.5478347833      -14.9987742387      -17.0432300000  MEMB      126             0.0000000000
     14693       126  CHL1      H2B            14.0031642947      -15.9797535881      -16.7233500000  MEMB      126             0.0000000000
     14694       126  CHL1      C20            15.0436751961      -17.3151968454       -7.1599200000  MEMB      126             0.0000000000
     14695       126  CHL1      H20            14.3586531798      -18.1719547439       -6.9837600000  MEMB      126             0.0000000000
     14696       126  CHL1      C21            14.1327938483      -16.0524763117       -7.1717100000  MEMB      126             0.0000000000
     14697       126  CHL1      H21A           13.7357149732      -15.9988952934       -6.1354800000  MEMB      126             0.0000000000
     14698       126  CHL1      H21B           13.2316089052      -16.3039875253       -7.7708100000  MEMB      126             0.0000000000
     14699       126  CHL1      H21C           14.4735159263      -15.0381397563       -7.4706200000  MEMB      126             0.0000000000
     14700       126  CHL1      C22            16.0358587423      -17.3115977806       -5.9523900000  MEMB      126             0.0000000000
     14701       126  CHL1      H22A           16.5621694803      -18.2896186100       -5.9239500000  MEMB      126             0.0000000000
     14702       126  CHL1      H22B           16.7708539378      -16.4938564100       -6.1116900000  MEMB      126             0.0000000000
     14703       126  CHL1      C23            15.5046966714      -17.0212114570       -4.5370700000  MEMB      126             0.0000000000
     14704       126  CHL1      H23A           15.0680910844      -15.9998220226       -4.5585400000  MEMB      126             0.0000000000
     14705       126  CHL1      H23B           14.6377711764      -17.6809334852       -4.3190500000  MEMB      126             0.0000000000
     14706       126  CHL1      C24            16.5137025407      -17.2629135180       -3.3987600000  MEMB      126             0.0000000000
     14707       126  CHL1      H24A           16.8070068147      -18.3340417554       -3.3676100000  MEMB      126             0.0000000000
     14708       126  CHL1      H24B           17.4458631417      -16.6765060876       -3.5455000000  MEMB      126             0.0000000000
     14709       126  CHL1      C25            15.9839896275      -16.9738830860       -1.9812300000  MEMB      126             0.0000000000
     14710       126  CHL1      H25            15.4104483505      -16.0224968407       -1.9970400000  MEMB      126             0.0000000000
     14711       126  CHL1      C26            14.9951842290      -18.0524910175       -1.5483400000  MEMB      126             0.0000000000
     14712       126  CHL1      H26A           14.6153963955      -18.0329021392       -0.5044500000  MEMB      126             0.0000000000
     14713       126  CHL1      H26B           14.0520369845      -17.9863697962       -2.1318000000  MEMB      126             0.0000000000
     14714       126  CHL1      H26C           15.4756527869      -19.0363545371       -1.7367100000  MEMB      126             0.0000000000
     14715       126  CHL1      C27            17.1668706001      -16.9520467457       -1.0479900000  MEMB      126             0.0000000000
     14716       126  CHL1      H27A           17.6458133848      -17.9439252772       -1.1933100000  MEMB      126             0.0000000000
     14717       126  CHL1      H27B           17.7991154282      -16.0813651475       -1.3245600000  MEMB      126             0.0000000000
     14718       126  CHL1      H27C           16.8530553512      -16.9134419007        0.0170700000  MEMB      126             0.0000000000
     14719       127  SAPS      N               9.4901533537       21.5793789497      -21.3926665415  MEMB      127             0.0000000000
     14720       127  SAPS      HN1             8.7253313831       21.5731039058      -22.0973707405  MEMB      127             0.0000000000
     14721       127  SAPS      HN2             9.1124143590       21.8104264404      -20.4516404112  MEMB      127             0.0000000000
     14722       127  SAPS      HN3            10.1290821475       22.3362218645      -21.7097765696  MEMB      127             0.0000000000
     14723       127  SAPS      C12            10.3211318137       20.3317244598      -21.3298242526  MEMB      127             0.0000000000
     14724       127  SAPS      H12A            9.6377276276       19.4976026806      -21.2698285853  MEMB      127             0.0000000000
     14725       127  SAPS      C13            11.0856681023       20.0521126996      -22.6165014444  MEMB      127             0.0000000000
     14726       127  SAPS      O13A           11.1209640544       20.9441022428      -23.4764443798  MEMB      127             0.0000000000
     14727       127  SAPS      O13B           11.8386821619       19.0739630115      -22.5933978995  MEMB      127             0.0000000000
     14728       127  SAPS      C11            11.3253887418       20.6055350974      -20.0848265197  MEMB      127             0.0000000000
     14729       127  SAPS      H11A           11.7505373180       21.6300151121      -20.0214985872  MEMB      127             0.0000000000
     14730       127  SAPS      H11B           12.2802786291       20.0407830507      -20.1445042754  MEMB      127             0.0000000000
     14731       127  SAPS      P              10.0739899390       21.2306490297      -17.6953823942  MEMB      127             0.0000000000
     14732       127  SAPS      O13             9.5781013036       22.4527928154      -18.3437814294  MEMB      127             0.0000000000
     14733       127  SAPS      O14             9.0925583915       20.5319600518      -16.8369295503  MEMB      127             0.0000000000
     14734       127  SAPS      O12            10.7122876584       20.2562848416      -18.8296628544  MEMB      127             0.0000000000
     14735       127  SAPS      O11            11.3129017002       21.6217815998      -16.8005826837  MEMB      127             0.0000000000
     14736       127  SAPS      C1             12.3487604997       22.2534622935      -17.3080685269  MEMB      127             0.0000000000
     14737       127  SAPS      HA             13.0599262220       21.5112543001      -17.7296031530  MEMB      127             0.0000000000
     14738       127  SAPS      HB             12.1572198964       23.0210442662      -18.0881010875  MEMB      127             0.0000000000
     14739       127  SAPS      C2             13.0040216141       23.1424644907      -16.1702858949  MEMB      127             0.0000000000
     14740       127  SAPS      HS             14.0158857914       23.3895916594      -16.5567829478  MEMB      127             0.0000000000
     14741       127  SAPS      O21            13.1144657300       22.5098623275      -14.9097253192  MEMB      127             0.0000000000
     14742       127  SAPS      C21            13.7193525744       21.3858129490      -14.9181110169  MEMB      127             0.0000000000
     14743       127  SAPS      O22            14.3623608624       20.8601614067      -15.8205943310  MEMB      127             0.0000000000
     14744       127  SAPS      C22            13.6204639264       20.8037487357      -13.4901167039  MEMB      127             0.0000000000
     14745       127  SAPS      H2R            14.6800122673       20.7947783230      -13.1560546739  MEMB      127             0.0000000000
     14746       127  SAPS      H2S            13.0407102353       21.4845711842      -12.8308083492  MEMB      127             0.0000000000
     14747       127  SAPS      C3             12.1579221702       24.4871939124      -16.0156172586  MEMB      127             0.0000000000
     14748       127  SAPS      HX             12.2057529871       25.0942501987      -16.9448727231  MEMB      127             0.0000000000
     14749       127  SAPS      HY             12.5749658558       25.1088857287      -15.1947060389  MEMB      127             0.0000000000
     14750       127  SAPS      O31            10.8181906307       24.0349287043      -15.8135964593  MEMB      127             0.0000000000
     14751       127  SAPS      C31            10.1409154345       24.4845077616      -14.7492026418  MEMB      127             0.0000000000
     14752       127  SAPS      O32            10.4124631559       25.4687415855      -14.0540168019  MEMB      127             0.0000000000
     14753       127  SAPS      C32             8.9103106048       23.5695735508      -14.5473224016  MEMB      127             0.0000000000
     14754       127  SAPS      H2X             8.7969481020       23.2812957095      -15.6142649676  MEMB      127             0.0000000000
     14755       127  SAPS      H2Y             8.0316241137       24.1349967458      -14.1697941816  MEMB      127             0.0000000000
     14756       127  SAPS      C23            12.9780318888       19.3666707548      -13.4929747785  MEMB      127             0.0000000000
     14757       127  SAPS      H3R            13.3583895485       18.6750462605      -14.2748342220  MEMB      127             0.0000000000
     14758       127  SAPS      H3S            11.8810226831       19.3988015925      -13.6657728934  MEMB      127             0.0000000000
     14759       127  SAPS      C24            13.1143767215       18.7519296064      -12.0963437573  MEMB      127             0.0000000000
     14760       127  SAPS      H4R            12.4243640575       17.8814298706      -12.0755165434  MEMB      127             0.0000000000
     14761       127  SAPS      H4S            12.7036455252       19.5719511042      -11.4692990617  MEMB      127             0.0000000000
     14762       127  SAPS      C25            14.4221874387       18.2723443647      -11.5820494839  MEMB      127             0.0000000000
     14763       127  SAPS      H5R            14.9193211802       17.6065864189      -12.3028990507  MEMB      127             0.0000000000
     14764       127  SAPS      C26            15.1716091500       18.6645689945      -10.5118593817  MEMB      127             0.0000000000
     14765       127  SAPS      H6R            16.1665952639       18.2217592283      -10.3571902251  MEMB      127             0.0000000000
     14766       127  SAPS      C27            14.8354380229       19.7454262365       -9.5045097488  MEMB      127             0.0000000000
     14767       127  SAPS      H7R            13.8824542754       20.2511267301       -9.7698581173  MEMB      127             0.0000000000
     14768       127  SAPS      H7S            15.6462294963       20.5031165332       -9.5578344900  MEMB      127             0.0000000000
     14769       127  SAPS      C28            14.8065204326       19.3497123657       -8.0101346139  MEMB      127             0.0000000000
     14770       127  SAPS      H8R            15.0889051476       18.2909304731       -7.9140105863  MEMB      127             0.0000000000
     14771       127  SAPS      C29            14.4678888451       19.9995281471       -6.8962077265  MEMB      127             0.0000000000
     14772       127  SAPS      H9R            14.4902961554       19.4397471386       -5.9495590338  MEMB      127             0.0000000000
     14773       127  SAPS      C210           13.9848289576       21.4442254926       -6.8520965114  MEMB      127             0.0000000000
     14774       127  SAPS      H10R           13.4954165729       21.7087251984       -7.8137798565  MEMB      127             0.0000000000
     14775       127  SAPS      H10S           14.8386177364       22.1543877618       -6.8842745786  MEMB      127             0.0000000000
     14776       127  SAPS      C211           13.0773744063       21.6230108121       -5.7030709066  MEMB      127             0.0000000000
     14777       127  SAPS      H11R           12.4497533543       20.8133989528       -5.3022960532  MEMB      127             0.0000000000
     14778       127  SAPS      C212           12.8742661875       22.8895382432       -5.2001645387  MEMB      127             0.0000000000
     14779       127  SAPS      H12R           12.2504215980       22.9984652252       -4.3007467442  MEMB      127             0.0000000000
     14780       127  SAPS      C213           13.5320481177       24.1287279312       -5.6937804274  MEMB      127             0.0000000000
     14781       127  SAPS      H13R           13.1451746707       24.2756515847       -6.7248295640  MEMB      127             0.0000000000
     14782       127  SAPS      H13S           14.5859982570       23.9440081445       -5.9927600211  MEMB      127             0.0000000000
     14783       127  SAPS      C214           13.3312439035       25.4443461771       -4.9062826884  MEMB      127             0.0000000000
     14784       127  SAPS      H14R           12.6473884530       26.1661691755       -5.3767226942  MEMB      127             0.0000000000
     14785       127  SAPS      C215           13.9608974417       25.9195709832       -3.8224421314  MEMB      127             0.0000000000
     14786       127  SAPS      H15R           13.5799575844       26.8045576393       -3.2917027039  MEMB      127             0.0000000000
     14787       127  SAPS      C216           15.1340358951       25.2639255965       -3.0704429857  MEMB      127             0.0000000000
     14788       127  SAPS      H16R           15.6833552165       26.1717617938       -2.7411962974  MEMB      127             0.0000000000
     14789       127  SAPS      H16S           15.7142869423       24.7604751451       -3.8730428807  MEMB      127             0.0000000000
     14790       127  SAPS      C217           14.7010938909       24.2321949885       -1.9822258060  MEMB      127             0.0000000000
     14791       127  SAPS      H17R           14.2661888966       23.3265058132       -2.4564693394  MEMB      127             0.0000000000
     14792       127  SAPS      H17S           13.9335277848       24.6914624467       -1.3232599946  MEMB      127             0.0000000000
     14793       127  SAPS      C218           15.8949369279       23.7684461019       -1.1210989173  MEMB      127             0.0000000000
     14794       127  SAPS      H18R           16.1291955078       24.6571683189       -0.4969061758  MEMB      127             0.0000000000
     14795       127  SAPS      H18S           16.7911185569       23.4835417221       -1.7127150938  MEMB      127             0.0000000000
     14796       127  SAPS      C219           15.4796948329       22.6596361857       -0.1196804967  MEMB      127             0.0000000000
     14797       127  SAPS      H19R           14.4766417238       22.9152712962        0.2838748308  MEMB      127             0.0000000000
     14798       127  SAPS      H19S           16.2094672444       22.5214306905        0.7065477047  MEMB      127             0.0000000000
     14799       127  SAPS      C220           15.3776248395       21.3063724898       -0.8498720732  MEMB      127             0.0000000000
     14800       127  SAPS      H20R           16.3825765013       21.1484402294       -1.2964714641  MEMB      127             0.0000000000
     14801       127  SAPS      H20S           14.7783233963       21.5407679383       -1.7555318439  MEMB      127             0.0000000000
     14802       127  SAPS      H20T           14.8822964116       20.5223746443       -0.2380567192  MEMB      127             0.0000000000
     14803       127  SAPS      C33             9.2100471877       22.3263932113      -13.6815232670  MEMB      127             0.0000000000
     14804       127  SAPS      H3X            10.0951847428       21.8193644607      -14.1217214024  MEMB      127             0.0000000000
     14805       127  SAPS      H3Y             8.3717286084       21.6393337065      -13.9254331558  MEMB      127             0.0000000000
     14806       127  SAPS      C34             9.3599902318       22.5914718779      -12.1493701031  MEMB      127             0.0000000000
     14807       127  SAPS      H4X             8.3241108468       22.6737755026      -11.7563036757  MEMB      127             0.0000000000
     14808       127  SAPS      H4Y             9.9602718722       23.5156519152      -12.0083942522  MEMB      127             0.0000000000
     14809       127  SAPS      C35            10.0355368427       21.4198236899      -11.4465547517  MEMB      127             0.0000000000
     14810       127  SAPS      H5X            10.9708775585       21.1644517582      -11.9889975043  MEMB      127             0.0000000000
     14811       127  SAPS      H5Y             9.3962841867       20.5141250390      -11.3731582878  MEMB      127             0.0000000000
     14812       127  SAPS      C36            10.5274240249       21.6845106551       -9.9726139877  MEMB      127             0.0000000000
     14813       127  SAPS      H6X            10.9139669330       22.7223584952       -9.8844255726  MEMB      127             0.0000000000
     14814       127  SAPS      H6Y            11.4207895873       21.0423931900       -9.8180047728  MEMB      127             0.0000000000
     14815       127  SAPS      C37             9.4321921955       21.3944388602       -8.9557139663  MEMB      127             0.0000000000
     14816       127  SAPS      H7X             8.4790648007       21.9263256621       -9.1629953646  MEMB      127             0.0000000000
     14817       127  SAPS      H7Y             9.7324715354       21.7658652550       -7.9526213415  MEMB      127             0.0000000000
     14818       127  SAPS      C38             9.0715474913       19.9141975652       -8.7000501657  MEMB      127             0.0000000000
     14819       127  SAPS      H8X             9.2688829445       19.4125096515       -9.6714870923  MEMB      127             0.0000000000
     14820       127  SAPS      H8Y             8.0149211527       19.7725219730       -8.3873369800  MEMB      127             0.0000000000
     14821       127  SAPS      C39             9.8878729326       19.3715820617       -7.5435011932  MEMB      127             0.0000000000
     14822       127  SAPS      H9X             9.5933594910       19.8256777670       -6.5732542055  MEMB      127             0.0000000000
     14823       127  SAPS      H9Y            10.9522059961       19.6115532412       -7.7530960656  MEMB      127             0.0000000000
     14824       127  SAPS      C310            9.8351000492       17.8411448734       -7.3762683320  MEMB      127             0.0000000000
     14825       127  SAPS      H10X           10.3339005733       17.3875944100       -8.2593376902  MEMB      127             0.0000000000
     14826       127  SAPS      H10Y            8.8096054105       17.4190988751       -7.3087458810  MEMB      127             0.0000000000
     14827       127  SAPS      C311           10.5395105017       17.2640817697       -6.2001609550  MEMB      127             0.0000000000
     14828       127  SAPS      H11X           10.3983302733       16.1631074792       -6.2475365096  MEMB      127             0.0000000000
     14829       127  SAPS      H11Y           10.0713456555       17.6705125399       -5.2782305306  MEMB      127             0.0000000000
     14830       127  SAPS      C312           12.0519444658       17.3884320029       -6.1622986891  MEMB      127             0.0000000000
     14831       127  SAPS      H12X           12.2391839217       18.4834923168       -6.1725452831  MEMB      127             0.0000000000
     14832       127  SAPS      H12Y           12.5112400787       17.0049767288       -7.0984237684  MEMB      127             0.0000000000
     14833       127  SAPS      C313           12.7320424308       16.9228523215       -4.7861117529  MEMB      127             0.0000000000
     14834       127  SAPS      H13X           13.7624240940       16.7324390846       -5.1554050064  MEMB      127             0.0000000000
     14835       127  SAPS      H13Y           12.3254379682       15.9578389189       -4.4149749587  MEMB      127             0.0000000000
     14836       127  SAPS      C314           12.8692822528       17.8788273909       -3.5515701089  MEMB      127             0.0000000000
     14837       127  SAPS      H14X           11.8061125170       18.0789832119       -3.2987284343  MEMB      127             0.0000000000
     14838       127  SAPS      H14Y           13.4417954009       18.8049016103       -3.7727861159  MEMB      127             0.0000000000
     14839       127  SAPS      C315           13.5531525398       17.3165695957       -2.3559462521  MEMB      127             0.0000000000
     14840       127  SAPS      H15X           14.6361228526       17.1211618149       -2.5086298047  MEMB      127             0.0000000000
     14841       127  SAPS      H15Y           13.0977786732       16.3435974318       -2.0726077531  MEMB      127             0.0000000000
     14842       127  SAPS      C316           13.4918901244       18.2574463656       -1.1385392454  MEMB      127             0.0000000000
     14843       127  SAPS      H16X           13.7693092306       19.2706134883       -1.5002743354  MEMB      127             0.0000000000
     14844       127  SAPS      H16Y           14.2393025042       17.9343986676       -0.3826719719  MEMB      127             0.0000000000
     14845       127  SAPS      C317           12.0723592965       18.3371426438       -0.3983067722  MEMB      127             0.0000000000
     14846       127  SAPS      H17X           11.1936382839       18.6136946892       -1.0193455115  MEMB      127             0.0000000000
     14847       127  SAPS      H17Y           11.9852310446       19.2584644270        0.2164256070  MEMB      127             0.0000000000
     14848       127  SAPS      C318           11.6315769722       17.1121008659        0.3622106223  MEMB      127             0.0000000000
     14849       127  SAPS      H18X           11.3703665347       16.2594869983       -0.3004662859  MEMB      127             0.0000000000
     14850       127  SAPS      H18Y           10.8167196533       17.3619563697        1.0748816811  MEMB      127             0.0000000000
     14851       127  SAPS      H18Z           12.5977882394       16.8282149337        0.8314283415  MEMB      127             0.0000000000
     14852       128  CHL1      C3             22.8821205976        4.8933812780      -17.3031000000  MEMB      128             0.0000000000
     14853       128  CHL1      H3             22.8732377587        3.8093636180      -17.0598700000  MEMB      128             0.0000000000
     14854       128  CHL1      O3             22.8923188024        5.0638868354      -18.6969000000  MEMB      128             0.0000000000
     14855       128  CHL1      H3'            23.1728588167        5.9801465029      -18.7549800000  MEMB      128             0.0000000000
     14856       128  CHL1      C4             21.6583590406        5.5903994630      -16.7068200000  MEMB      128             0.0000000000
     14857       128  CHL1      H4A            21.7058185311        6.6818872602      -16.9086200000  MEMB      128             0.0000000000
     14858       128  CHL1      H4B            20.8340644342        5.0749733946      -17.2445900000  MEMB      128             0.0000000000
     14859       128  CHL1      C5             21.6411811611        5.3900079985      -15.2084600000  MEMB      128             0.0000000000
     14860       128  CHL1      C6             20.5505020673        4.8752611243      -14.5719900000  MEMB      128             0.0000000000
     14861       128  CHL1      H6             19.6686883238        4.5556785295      -15.1466800000  MEMB      128             0.0000000000
     14862       128  CHL1      C7             20.5393412948        4.6244832705      -13.1011500000  MEMB      128             0.0000000000
     14863       128  CHL1      H7A            19.5252409394        4.8198156573      -12.6915500000  MEMB      128             0.0000000000
     14864       128  CHL1      H7B            20.7451736944        3.5611107663      -12.8538000000  MEMB      128             0.0000000000
     14865       128  CHL1      C8             21.6283068919        5.4210837864      -12.3466500000  MEMB      128             0.0000000000
     14866       128  CHL1      H8             21.4230709938        6.5058662552      -12.4709300000  MEMB      128             0.0000000000
     14867       128  CHL1      C14            21.6924279048        4.9822211525      -10.9158400000  MEMB      128             0.0000000000
     14868       128  CHL1      H14            22.0402655673        3.9282368217      -10.9652900000  MEMB      128             0.0000000000
     14869       128  CHL1      C15            20.4223091248        4.9216543663      -10.0140700000  MEMB      128             0.0000000000
     14870       128  CHL1      H15A           19.8069973969        5.8271752038      -10.2031600000  MEMB      128             0.0000000000
     14871       128  CHL1      H15B           19.7521031248        4.0504357032      -10.1757000000  MEMB      128             0.0000000000
     14872       128  CHL1      C16            20.9444234209        4.8644666065       -8.5508400000  MEMB      128             0.0000000000
     14873       128  CHL1      H16A           20.5047684421        5.6729851400       -7.9285000000  MEMB      128             0.0000000000
     14874       128  CHL1      H16B           20.7358275636        3.8684080594       -8.1051100000  MEMB      128             0.0000000000
     14875       128  CHL1      C17            22.4256300785        5.1465664714       -8.6997500000  MEMB      128             0.0000000000
     14876       128  CHL1      H17            22.9573480965        4.1735802897       -8.6297900000  MEMB      128             0.0000000000
     14877       128  CHL1      C13            22.6693880716        5.7517593630      -10.1066200000  MEMB      128             0.0000000000
     14878       128  CHL1      C18            22.3961143439        7.2234339168      -10.1288300000  MEMB      128             0.0000000000
     14879       128  CHL1      H18A           21.3157663293        7.3767807520       -9.9199200000  MEMB      128             0.0000000000
     14880       128  CHL1      H18B           22.9054881149        7.7146958316       -9.2723700000  MEMB      128             0.0000000000
     14881       128  CHL1      H18C           22.7008241889        7.7908776819      -11.0340800000  MEMB      128             0.0000000000
     14882       128  CHL1      C12            24.1202262811        5.4832140974      -10.7160800000  MEMB      128             0.0000000000
     14883       128  CHL1      H12A           24.8557327141        6.1928069260      -10.2803700000  MEMB      128             0.0000000000
     14884       128  CHL1      H12B           24.4732441818        4.4561593197      -10.4818800000  MEMB      128             0.0000000000
     14885       128  CHL1      C11            24.2419458010        5.7578511943      -12.2750800000  MEMB      128             0.0000000000
     14886       128  CHL1      H11A           24.2901816622        6.8651680738      -12.3514400000  MEMB      128             0.0000000000
     14887       128  CHL1      H11B           25.1620722135        5.1874082202      -12.5246500000  MEMB      128             0.0000000000
     14888       128  CHL1      C9             23.0403192541        5.2139257717      -13.0500600000  MEMB      128             0.0000000000
     14889       128  CHL1      H9             23.2542242837        4.1243537037      -13.0126700000  MEMB      128             0.0000000000
     14890       128  CHL1      C10            23.0167595126        5.7909577110      -14.4582800000  MEMB      128             0.0000000000
     14891       128  CHL1      C19            23.1060991934        7.3256622143      -14.3910000000  MEMB      128             0.0000000000
     14892       128  CHL1      H19A           22.6243732823        7.8373814987      -13.5305300000  MEMB      128             0.0000000000
     14893       128  CHL1      H19B           24.1768919035        7.6169655741      -14.3374000000  MEMB      128             0.0000000000
     14894       128  CHL1      H19C           22.6717278053        7.7726766445      -15.3106800000  MEMB      128             0.0000000000
     14895       128  CHL1      C1             24.2487336583        5.2858633543      -15.2214400000  MEMB      128             0.0000000000
     14896       128  CHL1      H1A            25.0607339573        5.8648743746      -14.7318300000  MEMB      128             0.0000000000
     14897       128  CHL1      H1B            24.3295250080        4.1920814381      -15.0441700000  MEMB      128             0.0000000000
     14898       128  CHL1      C2             24.1941812029        5.4848996950      -16.7265700000  MEMB      128             0.0000000000
     14899       128  CHL1      H2A            25.1059655683        5.0373463981      -17.1767300000  MEMB      128             0.0000000000
     14900       128  CHL1      H2B            24.1247888494        6.5612186249      -16.9931200000  MEMB      128             0.0000000000
     14901       128  CHL1      C20            22.8933223536        5.8904424545       -7.3661900000  MEMB      128             0.0000000000
     14902       128  CHL1      H20            22.5390878845        6.9424515977       -7.3202100000  MEMB      128             0.0000000000
     14903       128  CHL1      C21            24.3898695633        6.0431710894       -7.3268600000  MEMB      128             0.0000000000
     14904       128  CHL1      H21A           24.8712061195        6.2409816012       -6.3452800000  MEMB      128             0.0000000000
     14905       128  CHL1      H21B           24.6529343877        6.8016950071       -8.0948200000  MEMB      128             0.0000000000
     14906       128  CHL1      H21C           24.7323581221        5.0577838802       -7.7090300000  MEMB      128             0.0000000000
     14907       128  CHL1      C22            22.3453520148        5.2092665646       -6.1296000000  MEMB      128             0.0000000000
     14908       128  CHL1      H22A           21.2520253764        5.0171713425       -6.0842200000  MEMB      128             0.0000000000
     14909       128  CHL1      H22B           22.8569189645        4.2283554067       -6.0273800000  MEMB      128             0.0000000000
     14910       128  CHL1      C23            22.6349910152        5.7973703815       -4.6606900000  MEMB      128             0.0000000000
     14911       128  CHL1      H23A           22.3223880812        5.0251674105       -3.9256400000  MEMB      128             0.0000000000
     14912       128  CHL1      H23B           23.7446501038        5.8281663775       -4.6157300000  MEMB      128             0.0000000000
     14913       128  CHL1      C24            21.9421854209        7.1098647076       -4.3715700000  MEMB      128             0.0000000000
     14914       128  CHL1      H24A           22.3443469644        7.8502070077       -5.0957800000  MEMB      128             0.0000000000
     14915       128  CHL1      H24B           20.8417183001        7.1622519306       -4.5149600000  MEMB      128             0.0000000000
     14916       128  CHL1      C25            22.1679894990        7.6722803560       -2.9613100000  MEMB      128             0.0000000000
     14917       128  CHL1      H25            21.8986688774        8.7488535178       -3.0141200000  MEMB      128             0.0000000000
     14918       128  CHL1      C26            21.1847673386        7.1108257067       -1.9684400000  MEMB      128             0.0000000000
     14919       128  CHL1      H26A           20.1862062268        7.1096983024       -2.4554700000  MEMB      128             0.0000000000
     14920       128  CHL1      H26B           21.4746189794        6.0724291430       -1.7000400000  MEMB      128             0.0000000000
     14921       128  CHL1      H26C           21.2373578830        7.7301256582       -1.0475600000  MEMB      128             0.0000000000
     14922       128  CHL1      C27            23.5610355247        7.5806845240       -2.3772200000  MEMB      128             0.0000000000
     14923       128  CHL1      H27A           23.6167089026        8.0431676769       -1.3685900000  MEMB      128             0.0000000000
     14924       128  CHL1      H27B           23.9048612745        6.5434429725       -2.1765900000  MEMB      128             0.0000000000
     14925       128  CHL1      H27C           24.2718398302        8.1459167992       -3.0172100000  MEMB      128             0.0000000000
     14926       129  SAPS      N              21.8906884463        8.9222228295      -21.1265507170  MEMB      129             0.0000000000
     14927       129  SAPS      HN1            21.8720726415        7.8993719318      -20.9393886371  MEMB      129             0.0000000000
     14928       129  SAPS      HN2            21.2626113432        9.1074952952      -21.9345068595  MEMB      129             0.0000000000
     14929       129  SAPS      HN3            22.8261540049        9.1795730182      -21.5010836983  MEMB      129             0.0000000000
     14930       129  SAPS      C12            21.4072028158        9.5384062644      -19.8625441417  MEMB      129             0.0000000000
     14931       129  SAPS      H12A           20.4980794536        9.0311334533      -19.5751961384  MEMB      129             0.0000000000
     14932       129  SAPS      C13            22.4526912046        9.3009421478      -18.7362843725  MEMB      129             0.0000000000
     14933       129  SAPS      O13A           23.5641678270        8.7851252175      -19.0648264636  MEMB      129             0.0000000000
     14934       129  SAPS      O13B           22.2880660222        9.9225596822      -17.6201218842  MEMB      129             0.0000000000
     14935       129  SAPS      C11            21.1843850459       11.0833886402      -19.9895436469  MEMB      129             0.0000000000
     14936       129  SAPS      H11A           22.0943190672       11.5454619449      -20.4286669214  MEMB      129             0.0000000000
     14937       129  SAPS      H11B           21.0562387892       11.5509925418      -18.9899206729  MEMB      129             0.0000000000
     14938       129  SAPS      P              19.1570234361       12.6392767053      -20.7622993878  MEMB      129             0.0000000000
     14939       129  SAPS      O13            20.0582851299       13.7954670524      -21.0702350754  MEMB      129             0.0000000000
     14940       129  SAPS      O14            17.9906170993       12.4491227372      -21.6450530086  MEMB      129             0.0000000000
     14941       129  SAPS      O12            20.0910917229       11.2559275524      -20.8322676794  MEMB      129             0.0000000000
     14942       129  SAPS      O11            18.6029620158       12.6469451224      -19.2902736355  MEMB      129             0.0000000000
     14943       129  SAPS      C1             17.9743337153       11.4527082948      -18.7474136951  MEMB      129             0.0000000000
     14944       129  SAPS      HA             16.9271618259       11.2870334315      -19.0795344142  MEMB      129             0.0000000000
     14945       129  SAPS      HB             18.5529304935       10.5279378015      -18.9579992161  MEMB      129             0.0000000000
     14946       129  SAPS      C2             18.0069818483       11.4247427808      -17.1349878784  MEMB      129             0.0000000000
     14947       129  SAPS      HS             17.3674396725       12.2948916849      -16.8739367337  MEMB      129             0.0000000000
     14948       129  SAPS      O21            19.3685009623       11.5396776076      -16.6782577200  MEMB      129             0.0000000000
     14949       129  SAPS      C21            19.4410288208       12.4151719557      -15.7428731166  MEMB      129             0.0000000000
     14950       129  SAPS      O22            18.5223886806       13.0475332065      -15.1511808750  MEMB      129             0.0000000000
     14951       129  SAPS      C22            20.9306787489       12.5527515300      -15.3623162018  MEMB      129             0.0000000000
     14952       129  SAPS      H2R            21.4365941443       11.5636624190      -15.3708835409  MEMB      129             0.0000000000
     14953       129  SAPS      H2S            21.4554251387       13.2856633160      -16.0117797917  MEMB      129             0.0000000000
     14954       129  SAPS      C3             17.4215298093       10.0745302516      -16.5857064207  MEMB      129             0.0000000000
     14955       129  SAPS      HX             18.0463750768        9.2105475611      -16.8978335395  MEMB      129             0.0000000000
     14956       129  SAPS      HY             16.3624148740        9.9888007439      -16.9101238898  MEMB      129             0.0000000000
     14957       129  SAPS      O31            17.4186684393       10.0573212487      -15.1981039637  MEMB      129             0.0000000000
     14958       129  SAPS      C31            16.4531455559       10.6457095434      -14.4353519897  MEMB      129             0.0000000000
     14959       129  SAPS      O32            15.5419597199       11.3478009500      -14.8284859940  MEMB      129             0.0000000000
     14960       129  SAPS      C32            16.6561707524       10.1261959704      -13.0059988498  MEMB      129             0.0000000000
     14961       129  SAPS      H2X            17.6759163986        9.7211943451      -12.8316036094  MEMB      129             0.0000000000
     14962       129  SAPS      H2Y            15.9678410345        9.2638164946      -12.8762891139  MEMB      129             0.0000000000
     14963       129  SAPS      C23            21.0686967693       13.1974751610      -13.9290963775  MEMB      129             0.0000000000
     14964       129  SAPS      H3R            20.5949734632       12.6390390883      -13.0935988529  MEMB      129             0.0000000000
     14965       129  SAPS      H3S            20.6323783291       14.2169349418      -13.8609119948  MEMB      129             0.0000000000
     14966       129  SAPS      C24            22.5420575639       13.2329239486      -13.3740476055  MEMB      129             0.0000000000
     14967       129  SAPS      H4R            22.5589231282       13.7019972643      -12.3670683107  MEMB      129             0.0000000000
     14968       129  SAPS      H4S            23.0135438892       13.9438242229      -14.0858359935  MEMB      129             0.0000000000
     14969       129  SAPS      C25            23.3969759772       12.0393574941      -13.5096077430  MEMB      129             0.0000000000
     14970       129  SAPS      H5R            23.9518518209       11.9021072692      -14.4494348613  MEMB      129             0.0000000000
     14971       129  SAPS      C26            23.4581667477       11.1369637001      -12.5181513130  MEMB      129             0.0000000000
     14972       129  SAPS      H6R            24.0822835445       10.2377890591      -12.6275277558  MEMB      129             0.0000000000
     14973       129  SAPS      C27            22.7269227842       11.3248578367      -11.1275125865  MEMB      129             0.0000000000
     14974       129  SAPS      H7R            22.6541932723       12.4090287038      -10.8959859107  MEMB      129             0.0000000000
     14975       129  SAPS      H7S            23.3204927092       10.8578155204      -10.3127320319  MEMB      129             0.0000000000
     14976       129  SAPS      C28            21.3841207668       10.6346133212      -10.9983439663  MEMB      129             0.0000000000
     14977       129  SAPS      H8R            21.0938044421       10.0982789459      -11.9138015686  MEMB      129             0.0000000000
     14978       129  SAPS      C29            20.4295822174       10.6246384055       -9.9864251817  MEMB      129             0.0000000000
     14979       129  SAPS      H9R            19.4444469192       10.1933899806      -10.2177983671  MEMB      129             0.0000000000
     14980       129  SAPS      C210           20.5710942128       11.4169664364       -8.7037348484  MEMB      129             0.0000000000
     14981       129  SAPS      H10R           21.6328292473       11.2264333366       -8.4377718272  MEMB      129             0.0000000000
     14982       129  SAPS      H10S           19.9482651635       10.9587762468       -7.9059467118  MEMB      129             0.0000000000
     14983       129  SAPS      C211           20.3941528965       12.9055544759       -8.8785454548  MEMB      129             0.0000000000
     14984       129  SAPS      H11R           19.9747733791       13.2059027124       -9.8500972076  MEMB      129             0.0000000000
     14985       129  SAPS      C212           20.7191110943       13.8587304715       -7.9143946436  MEMB      129             0.0000000000
     14986       129  SAPS      H12R           20.3894779371       14.8970819332       -8.0666072678  MEMB      129             0.0000000000
     14987       129  SAPS      C213           21.3081803269       13.6357350956       -6.5953190892  MEMB      129             0.0000000000
     14988       129  SAPS      H13R           20.8543112251       12.7570034713       -6.0892018631  MEMB      129             0.0000000000
     14989       129  SAPS      H13S           20.9866999205       14.4253173563       -5.8829072432  MEMB      129             0.0000000000
     14990       129  SAPS      C214           22.8466816653       13.5656450187       -6.5709311989  MEMB      129             0.0000000000
     14991       129  SAPS      H14R           23.3655305738       13.9001157667       -7.4813837460  MEMB      129             0.0000000000
     14992       129  SAPS      C215           23.6874014461       13.2345800793       -5.5748627673  MEMB      129             0.0000000000
     14993       129  SAPS      H15R           24.7534042614       13.2871333900       -5.8410888117  MEMB      129             0.0000000000
     14994       129  SAPS      C216           23.2891334573       12.8296708429       -4.1828807994  MEMB      129             0.0000000000
     14995       129  SAPS      H16R           22.2072169467       12.8113919361       -3.9310011521  MEMB      129             0.0000000000
     14996       129  SAPS      H16S           23.7154049621       13.5865352202       -3.4902254042  MEMB      129             0.0000000000
     14997       129  SAPS      C217           23.8731697065       11.4659227912       -3.8956461428  MEMB      129             0.0000000000
     14998       129  SAPS      H17R           23.7733016731       11.3197376319       -2.7988446549  MEMB      129             0.0000000000
     14999       129  SAPS      H17S           24.9351119374       11.4238548984       -4.2194218868  MEMB      129             0.0000000000
     15000       129  SAPS      C218           23.0736497334       10.2757828772       -4.5146142877  MEMB      129             0.0000000000
     15001       129  SAPS      H18R           23.0743164146       10.4310876802       -5.6147052278  MEMB      129             0.0000000000
     15002       129  SAPS      H18S           22.0394203412       10.3239151073       -4.1116573453  MEMB      129             0.0000000000
     15003       129  SAPS      C219           23.8604945409        8.9589298449       -4.2424154662  MEMB      129             0.0000000000
     15004       129  SAPS      H19R           24.9528594034        8.9549882492       -4.4450093519  MEMB      129             0.0000000000
     15005       129  SAPS      H19S           23.3607304154        8.2058952797       -4.8885542554  MEMB      129             0.0000000000
     15006       129  SAPS      C220           23.6373897460        8.4209470292       -2.7860977410  MEMB      129             0.0000000000
     15007       129  SAPS      H20R           24.3165190798        8.8301508614       -2.0078596700  MEMB      129             0.0000000000
     15008       129  SAPS      H20S           23.7705140972        7.3205741545       -2.7100840124  MEMB      129             0.0000000000
     15009       129  SAPS      H20T           22.5693143051        8.5936071082       -2.5336614694  MEMB      129             0.0000000000
     15010       129  SAPS      C33            16.2631691428       11.0602658318      -11.9415422789  MEMB      129             0.0000000000
     15011       129  SAPS      H3X            15.3200304348       11.6148042309      -12.1346678363  MEMB      129             0.0000000000
     15012       129  SAPS      H3Y            17.0222005118       11.8715516007      -11.9387095815  MEMB      129             0.0000000000
     15013       129  SAPS      C34            16.1297539814       10.3828021117      -10.6490103038  MEMB      129             0.0000000000
     15014       129  SAPS      H4X            16.7944847706        9.4947601826      -10.5870801181  MEMB      129             0.0000000000
     15015       129  SAPS      H4Y            15.1389891824        9.8813855901      -10.6131230952  MEMB      129             0.0000000000
     15016       129  SAPS      C35            16.5133669900       11.2895638454       -9.4723304393  MEMB      129             0.0000000000
     15017       129  SAPS      H5X            15.6415520341       11.9644118877       -9.3350717909  MEMB      129             0.0000000000
     15018       129  SAPS      H5Y            17.4085242967       11.8675651376       -9.7868598154  MEMB      129             0.0000000000
     15019       129  SAPS      C36            16.5325976878       10.4765343480       -8.1532286799  MEMB      129             0.0000000000
     15020       129  SAPS      H6X            17.4728325861        9.8853655448       -8.1249695267  MEMB      129             0.0000000000
     15021       129  SAPS      H6Y            15.6986542852        9.7499818668       -8.0484394644  MEMB      129             0.0000000000
     15022       129  SAPS      C37            16.4488102908       11.3891006613       -6.9171162354  MEMB      129             0.0000000000
     15023       129  SAPS      H7X            15.5584358273       12.0516967818       -6.8669148329  MEMB      129             0.0000000000
     15024       129  SAPS      H7Y            17.3064986086       12.0903146050       -7.0007287932  MEMB      129             0.0000000000
     15025       129  SAPS      C38            16.5139934128       10.6408193833       -5.5521105680  MEMB      129             0.0000000000
     15026       129  SAPS      H8X            17.1571954623        9.7368793129       -5.6113094929  MEMB      129             0.0000000000
     15027       129  SAPS      H8Y            15.4593358161       10.3203634549       -5.4130900538  MEMB      129             0.0000000000
     15028       129  SAPS      C39            16.9219612475       11.4532626774       -4.3170441591  MEMB      129             0.0000000000
     15029       129  SAPS      H9X            16.1211662309       12.2204929428       -4.2506651897  MEMB      129             0.0000000000
     15030       129  SAPS      H9Y            17.9598925202       11.8424660515       -4.3914742396  MEMB      129             0.0000000000
     15031       129  SAPS      C310           17.0554945692       10.5904173319       -3.0179591496  MEMB      129             0.0000000000
     15032       129  SAPS      H10X           17.5949401731        9.6244582359       -3.1191637706  MEMB      129             0.0000000000
     15033       129  SAPS      H10Y           16.0427070240       10.1754149078       -2.8272869325  MEMB      129             0.0000000000
     15034       129  SAPS      C311           17.8110579079       11.2912220587       -1.9160948179  MEMB      129             0.0000000000
     15035       129  SAPS      H11X           17.4229581806       12.3321485889       -1.9291961118  MEMB      129             0.0000000000
     15036       129  SAPS      H11Y           18.9009882211       11.3259439546       -2.1286211869  MEMB      129             0.0000000000
     15037       129  SAPS      C312           17.4674569637       10.6808536279       -0.5673987872  MEMB      129             0.0000000000
     15038       129  SAPS      H12X           16.3741186154       10.7986937325       -0.4091367168  MEMB      129             0.0000000000
     15039       129  SAPS      H12Y           17.9649178011       11.1749385845        0.2944199771  MEMB      129             0.0000000000
     15040       129  SAPS      C313           17.7781989699        9.1097212251       -0.4406933665  MEMB      129             0.0000000000
     15041       129  SAPS      H13X           17.2387919442        8.5264073916       -1.2172919863  MEMB      129             0.0000000000
     15042       129  SAPS      H13Y           17.4619633224        8.6525101122        0.5212185241  MEMB      129             0.0000000000
     15043       129  SAPS      C314           19.3114506093        8.7635369105       -0.6142113841  MEMB      129             0.0000000000
     15044       129  SAPS      H14X           20.0650647014        9.5724615969       -0.5045430208  MEMB      129             0.0000000000
     15045       129  SAPS      H14Y           19.3904528399        8.3309238337       -1.6344700155  MEMB      129             0.0000000000
     15046       129  SAPS      C315           19.8035694082        7.6341326407        0.2526848424  MEMB      129             0.0000000000
     15047       129  SAPS      H15X           19.3653596761        6.6642219801       -0.0660096083  MEMB      129             0.0000000000
     15048       129  SAPS      H15Y           19.7019308436        7.8101476989        1.3449356344  MEMB      129             0.0000000000
     15049       129  SAPS      C316           21.3077624973        7.4708650417       -0.0657731861  MEMB      129             0.0000000000
     15050       129  SAPS      H16X           21.3294724597        7.6446247794       -1.1628866794  MEMB      129             0.0000000000
     15051       129  SAPS      H16Y           21.5786025152        6.3962104318        0.0122254274  MEMB      129             0.0000000000
     15052       129  SAPS      C317           22.2267447798        8.4382546350        0.6424225596  MEMB      129             0.0000000000
     15053       129  SAPS      H17X           21.9351957852        9.4945723269        0.4593579601  MEMB      129             0.0000000000
     15054       129  SAPS      H17Y           23.2419494753        8.3027209606        0.2119453731  MEMB      129             0.0000000000
     15055       129  SAPS      C318           22.3261628003        8.0970293283        2.1714577250  MEMB      129             0.0000000000
     15056       129  SAPS      H18X           22.9865470404        8.8186625796        2.6982012023  MEMB      129             0.0000000000
     15057       129  SAPS      H18Y           22.7463637932        7.0757399976        2.2927842931  MEMB      129             0.0000000000
     15058       129  SAPS      H18Z           21.3065885305        8.1401760244        2.6106933084  MEMB      129             0.0000000000
     15059       130  OSM       N             -25.1298400038       -8.7365086210      -21.1637254375  MEMB      130             0.0000000000
     15060       130  OSM       C15           -26.4793275780       -8.6421568586      -20.4706534896  MEMB      130             0.0000000000
     15061       130  OSM       H15A          -26.9491527128       -7.7796601968      -20.9198348799  MEMB      130             0.0000000000
     15062       130  OSM       H15B          -26.3888177354       -8.4520577653      -19.4113752950  MEMB      130             0.0000000000
     15063       130  OSM       H15C          -27.0882660869       -9.4775462032      -20.7832530667  MEMB      130             0.0000000000
     15064       130  OSM       C14           -24.4004429049       -9.9465998732      -20.6593291709  MEMB      130             0.0000000000
     15065       130  OSM       H14A          -25.0937555991      -10.7688975447      -20.5616354507  MEMB      130             0.0000000000
     15066       130  OSM       H14B          -23.7892519978       -9.7809462127      -19.7844551837  MEMB      130             0.0000000000
     15067       130  OSM       H14C          -23.7890537987      -10.3254269437      -21.4649925873  MEMB      130             0.0000000000
     15068       130  OSM       C13           -25.3714501074       -8.8640865023      -22.6101072633  MEMB      130             0.0000000000
     15069       130  OSM       H13A          -25.9798824394       -8.0743313258      -23.0254346504  MEMB      130             0.0000000000
     15070       130  OSM       H13B          -25.7794194409       -9.8325115484      -22.8593339970  MEMB      130             0.0000000000
     15071       130  OSM       H13C          -24.3847506011       -8.7889522732      -23.0427492513  MEMB      130             0.0000000000
     15072       130  OSM       C12           -24.4268004199       -7.3979039182      -20.7762532491  MEMB      130             0.0000000000
     15073       130  OSM       H12A          -24.2110654020       -7.3391024893      -19.7196545754  MEMB      130             0.0000000000
     15074       130  OSM       H12B          -25.1726386216       -6.6500175958      -21.0016224501  MEMB      130             0.0000000000
     15075       130  OSM       C11           -23.2519100055       -6.9571486638      -21.6405016580  MEMB      130             0.0000000000
     15076       130  OSM       H11A          -22.8991404203       -5.9142076529      -21.4916768048  MEMB      130             0.0000000000
     15077       130  OSM       H11B          -23.7368491170       -6.9540337973      -22.6400743229  MEMB      130             0.0000000000
     15078       130  OSM       P             -20.9706327543       -7.9908637430      -20.7579467556  MEMB      130             0.0000000000
     15079       130  OSM       O13           -20.0799323288       -9.1264365052      -21.0461288448  MEMB      130             0.0000000000
     15080       130  OSM       O14           -20.4263478751       -6.6433589662      -20.6375234374  MEMB      130             0.0000000000
     15081       130  OSM       O11           -21.7069163905       -8.4979054074      -19.3845521914  MEMB      130             0.0000000000
     15082       130  OSM       O12           -22.1700019319       -7.8825677563      -21.8532785023  MEMB      130             0.0000000000
     15083       130  OSM       C1S           -21.3994560178       -7.8206521071      -18.1511664257  MEMB      130             0.0000000000
     15084       130  OSM       H1S           -21.9470186090       -6.8624856718      -18.2792805527  MEMB      130             0.0000000000
     15085       130  OSM       H1T           -20.3006857220       -7.7994642381      -17.9881442977  MEMB      130             0.0000000000
     15086       130  OSM       NF            -22.1473177799       -7.9040335995      -15.8126876971  MEMB      130             0.0000000000
     15087       130  OSM       HNF           -21.6373617236       -8.2765967039      -15.0412275295  MEMB      130             0.0000000000
     15088       130  OSM       C2S           -22.0080377747       -8.6499426466      -17.0363608566  MEMB      130             0.0000000000
     15089       130  OSM       H2S           -22.9890701865       -9.0385245735      -17.3840684139  MEMB      130             0.0000000000
     15090       130  OSM       C3S           -21.1359902602       -9.9173275384      -16.7530432475  MEMB      130             0.0000000000
     15091       130  OSM       H3S           -20.1100358198       -9.5562831909      -16.5263590995  MEMB      130             0.0000000000
     15092       130  OSM       O3            -21.0692010149      -10.7198821574      -17.9283722795  MEMB      130             0.0000000000
     15093       130  OSM       HO3           -21.5345041492      -10.1976429375      -18.5859126736  MEMB      130             0.0000000000
     15094       130  OSM       C4S           -21.9127371402      -10.7027521664      -15.6013432116  MEMB      130             0.0000000000
     15095       130  OSM       H4S           -22.8817821099      -11.1520464225      -15.8641863518  MEMB      130             0.0000000000
     15096       130  OSM       C5S           -21.4139773353      -10.8722481747      -14.4304210680  MEMB      130             0.0000000000
     15097       130  OSM       H5S           -20.4404136737      -10.4309992452      -14.1706650789  MEMB      130             0.0000000000
     15098       130  OSM       C6S           -22.0992318886      -11.6499974664      -13.3355579317  MEMB      130             0.0000000000
     15099       130  OSM       H6S           -21.7513752559      -12.7022010351      -13.4141964960  MEMB      130             0.0000000000
     15100       130  OSM       H6T           -23.2071268290      -11.7173139742      -13.2869956213  MEMB      130             0.0000000000
     15101       130  OSM       C7S           -21.5823224650      -11.1709006173      -11.9882228684  MEMB      130             0.0000000000
     15102       130  OSM       H7S           -21.7504345557      -10.0832957619      -11.8359884408  MEMB      130             0.0000000000
     15103       130  OSM       H7T           -20.4747720354      -11.2560169839      -11.9680184269  MEMB      130             0.0000000000
     15104       130  OSM       C8S           -22.2093386323      -11.9503699394      -10.7959885586  MEMB      130             0.0000000000
     15105       130  OSM       H8S           -22.2252169619      -13.0556538013      -10.9074184786  MEMB      130             0.0000000000
     15106       130  OSM       H8T           -23.2475183803      -11.5557199801      -10.7685064997  MEMB      130             0.0000000000
     15107       130  OSM       C9S           -21.5125419008      -11.6568527853       -9.4494718573  MEMB      130             0.0000000000
     15108       130  OSM       H9S           -21.2599002949      -10.5764383672       -9.5060216149  MEMB      130             0.0000000000
     15109       130  OSM       H9T           -20.6025002479      -12.2696545365       -9.2744888008  MEMB      130             0.0000000000
     15110       130  OSM       C10S          -22.4888424154      -11.7343635727       -8.1938559583  MEMB      130             0.0000000000
     15111       130  OSM       H10S          -22.9207221958      -12.7423712595       -8.0157508434  MEMB      130             0.0000000000
     15112       130  OSM       H10T          -23.3197737898      -11.0261091629       -8.3994035498  MEMB      130             0.0000000000
     15113       130  OSM       C11S          -21.9026063598      -11.3083367745       -6.9419447837  MEMB      130             0.0000000000
     15114       130  OSM       H11S          -21.5985868629      -10.2584185822       -7.1408542415  MEMB      130             0.0000000000
     15115       130  OSM       H11T          -21.0459321036      -11.9153541329       -6.5786824954  MEMB      130             0.0000000000
     15116       130  OSM       C12S          -22.8430418215      -11.1787782982       -5.6904697575  MEMB      130             0.0000000000
     15117       130  OSM       H12S          -22.9269679244      -12.2552178406       -5.4286391136  MEMB      130             0.0000000000
     15118       130  OSM       H12T          -23.8557391917      -10.8600823136       -6.0178811641  MEMB      130             0.0000000000
     15119       130  OSM       C13S          -22.3748860466      -10.2449215554       -4.6096567566  MEMB      130             0.0000000000
     15120       130  OSM       H13S          -22.4606733743       -9.1428132303       -4.7206462424  MEMB      130             0.0000000000
     15121       130  OSM       H13T          -21.2754986956      -10.3428583624       -4.4828622107  MEMB      130             0.0000000000
     15122       130  OSM       C14S          -22.9128074330      -10.3787161134       -3.2014943205  MEMB      130             0.0000000000
     15123       130  OSM       H14S          -22.3561274188       -9.5911250826       -2.6500151386  MEMB      130             0.0000000000
     15124       130  OSM       H14T          -22.6918984663      -11.3991127894       -2.8216116871  MEMB      130             0.0000000000
     15125       130  OSM       C15S          -24.4865708198      -10.1477635325       -3.0517228729  MEMB      130             0.0000000000
     15126       130  OSM       H15S          -24.8240645821      -10.5793663258       -2.0852155588  MEMB      130             0.0000000000
     15127       130  OSM       H15T          -25.0132625341      -10.7747995243       -3.8025501429  MEMB      130             0.0000000000
     15128       130  OSM       C16S          -24.9104647899       -8.6764922126       -3.2492522914  MEMB      130             0.0000000000
     15129       130  OSM       H16S          -24.6684043787       -8.3264223124       -4.2754957076  MEMB      130             0.0000000000
     15130       130  OSM       H16T          -24.4349903747       -8.0825035667       -2.4396708002  MEMB      130             0.0000000000
     15131       130  OSM       C17S          -26.4108193050       -8.4468650513       -3.1562183451  MEMB      130             0.0000000000
     15132       130  OSM       H17S          -26.8827771137       -9.1449771574       -3.8802458947  MEMB      130             0.0000000000
     15133       130  OSM       H17T          -26.7102493908       -7.4209003584       -3.4596313444  MEMB      130             0.0000000000
     15134       130  OSM       C18S          -26.8753484403       -8.6652264531       -1.6686452622  MEMB      130             0.0000000000
     15135       130  OSM       H18S          -26.8745510013       -9.7412402432       -1.3920323551  MEMB      130             0.0000000000
     15136       130  OSM       H18T          -27.9322260909       -8.3311829418       -1.5928455739  MEMB      130             0.0000000000
     15137       130  OSM       H18U          -26.2106539000       -8.1121258481       -0.9710907490  MEMB      130             0.0000000000
     15138       130  OSM       C1F           -22.8653717705       -6.8248862743      -15.6309215222  MEMB      130             0.0000000000
     15139       130  OSM       OF            -23.4860992804       -6.3604277299      -16.5773835952  MEMB      130             0.0000000000
     15140       130  OSM       C2F           -22.8759754305       -6.3361376933      -14.2101902235  MEMB      130             0.0000000000
     15141       130  OSM       H2F           -23.0385938224       -5.2542897871      -14.0165898950  MEMB      130             0.0000000000
     15142       130  OSM       H2G           -21.9306683916       -6.6656834755      -13.7284068570  MEMB      130             0.0000000000
     15143       130  OSM       C3F           -24.0336244474       -7.0915198366      -13.4940109164  MEMB      130             0.0000000000
     15144       130  OSM       H3F           -24.1656819979       -8.1940137391      -13.5312804320  MEMB      130             0.0000000000
     15145       130  OSM       H3G           -24.9067612219       -6.6408983003      -14.0125601730  MEMB      130             0.0000000000
     15146       130  OSM       C4F           -24.1206416661       -6.7112644457      -12.0057217909  MEMB      130             0.0000000000
     15147       130  OSM       H4F           -23.6457867799       -5.7162584777      -11.8686202242  MEMB      130             0.0000000000
     15148       130  OSM       H4G           -23.4724110972       -7.3978110200      -11.4202540311  MEMB      130             0.0000000000
     15149       130  OSM       C5F           -25.4866026029       -6.6875463114      -11.3425961222  MEMB      130             0.0000000000
     15150       130  OSM       H5F           -25.9338252525       -7.7008208107      -11.4297041276  MEMB      130             0.0000000000
     15151       130  OSM       H5G           -26.1617624213       -5.9670780131      -11.8519146034  MEMB      130             0.0000000000
     15152       130  OSM       C6F           -25.3893892391       -6.4179054493       -9.7998879976  MEMB      130             0.0000000000
     15153       130  OSM       H6F           -26.3058171192       -5.9429925808       -9.3888666174  MEMB      130             0.0000000000
     15154       130  OSM       H6G           -24.5046367910       -5.7538035383       -9.6974055952  MEMB      130             0.0000000000
     15155       130  OSM       C7F           -25.1780802952       -7.7305501148       -9.0366299247  MEMB      130             0.0000000000
     15156       130  OSM       H7F           -24.2739656951       -8.2931826825       -9.3533988100  MEMB      130             0.0000000000
     15157       130  OSM       H7G           -26.1177617958       -8.2776994234       -9.2645488140  MEMB      130             0.0000000000
     15158       130  OSM       C8F           -24.8334909902       -7.5430390903       -7.5179596379  MEMB      130             0.0000000000
     15159       130  OSM       H8F           -25.1121466706       -8.4639028191       -6.9623681939  MEMB      130             0.0000000000
     15160       130  OSM       H8G           -25.6088246054       -6.8610540703       -7.1079901007  MEMB      130             0.0000000000
     15161       130  OSM       C9F           -23.3212471079       -7.2002455326       -7.3145182671  MEMB      130             0.0000000000
     15162       130  OSM       H9F           -22.5693161759       -8.0013395517       -7.3678871556  MEMB      130             0.0000000000
     15163       130  OSM       C10F          -22.8948700270       -5.9828322596       -7.0468969833  MEMB      130             0.0000000000
     15164       130  OSM       H10F          -21.8243803130       -5.7715281660       -6.9076052910  MEMB      130             0.0000000000
     15165       130  OSM       C11F          -23.7338020083       -4.7633713018       -6.9043341850  MEMB      130             0.0000000000
     15166       130  OSM       H11F          -24.2058550566       -4.5436646088       -7.8857690311  MEMB      130             0.0000000000
     15167       130  OSM       H11G          -23.0430909090       -3.9266874948       -6.6651705823  MEMB      130             0.0000000000
     15168       130  OSM       C12F          -24.7054822196       -4.5782886901       -5.6926086165  MEMB      130             0.0000000000
     15169       130  OSM       H12F          -25.6085215424       -5.2038643211       -5.8584281245  MEMB      130             0.0000000000
     15170       130  OSM       H12G          -25.0641233162       -3.5469281184       -5.4876873048  MEMB      130             0.0000000000
     15171       130  OSM       C13F          -24.0677715732       -5.0752019662       -4.3502750523  MEMB      130             0.0000000000
     15172       130  OSM       H13F          -23.6993633601       -6.1161365284       -4.4729613331  MEMB      130             0.0000000000
     15173       130  OSM       H13G          -24.8418830733       -4.8877270913       -3.5757264651  MEMB      130             0.0000000000
     15174       130  OSM       C14F          -22.7647848528       -4.4987722391       -3.7584862981  MEMB      130             0.0000000000
     15175       130  OSM       H14F          -22.6523687053       -3.3946833330       -3.7068022386  MEMB      130             0.0000000000
     15176       130  OSM       H14G          -21.9337552028       -4.7578174056       -4.4488522194  MEMB      130             0.0000000000
     15177       130  OSM       C15F          -22.3577035468       -5.1676567767       -2.4003962843  MEMB      130             0.0000000000
     15178       130  OSM       H15F          -22.5137654933       -6.2660361954       -2.4597967372  MEMB      130             0.0000000000
     15179       130  OSM       H15G          -23.0740169421       -4.7599159023       -1.6554375911  MEMB      130             0.0000000000
     15180       130  OSM       C16F          -20.8638638319       -4.9118315761       -1.9904109887  MEMB      130             0.0000000000
     15181       130  OSM       H16F          -20.8768147264       -3.8079328879       -1.8656689257  MEMB      130             0.0000000000
     15182       130  OSM       H16G          -20.1288770734       -5.1757893086       -2.7806283922  MEMB      130             0.0000000000
     15183       130  OSM       C17F          -20.4903019761       -5.7010904646       -0.7438042456  MEMB      130             0.0000000000
     15184       130  OSM       H17F          -19.4582280987       -5.4061776425       -0.4571493489  MEMB      130             0.0000000000
     15185       130  OSM       H17G          -20.5621915114       -6.7991639865       -0.8967335099  MEMB      130             0.0000000000
     15186       130  OSM       C18F          -21.4234076155       -5.4421430786        0.4477998635  MEMB      130             0.0000000000
     15187       130  OSM       H18F          -22.2357937079       -6.1961863440        0.5237547902  MEMB      130             0.0000000000
     15188       130  OSM       H18G          -21.7378206600       -4.3801498441        0.3604165275  MEMB      130             0.0000000000
     15189       130  OSM       H18H          -20.8611573191       -5.5460860358        1.4003707437  MEMB      130             0.0000000000
     15190       131  SAPE      N              -4.0785911018       26.8230617567      -20.3333769421  MEMB      131             0.0000000000
     15191       131  SAPE      HN1            -3.2210673409       26.2362255615      -20.2900594647  MEMB      131             0.0000000000
     15192       131  SAPE      HN2            -3.9829333997       27.8221525830      -20.6058963620  MEMB      131             0.0000000000
     15193       131  SAPE      HN3            -4.6036842791       26.7903620127      -19.4362661117  MEMB      131             0.0000000000
     15194       131  SAPE      C12            -5.0466670572       26.3022233468      -21.4322037534  MEMB      131             0.0000000000
     15195       131  SAPE      H12A           -4.4793145860       26.2126069031      -22.3832037316  MEMB      131             0.0000000000
     15196       131  SAPE      H12B           -5.7497812519       27.1408288807      -21.6237563292  MEMB      131             0.0000000000
     15197       131  SAPE      C11            -5.7454879188       25.0286766364      -21.1435556182  MEMB      131             0.0000000000
     15198       131  SAPE      H11A           -6.3306640273       24.7455805224      -22.0445255321  MEMB      131             0.0000000000
     15199       131  SAPE      H11B           -6.5354389837       25.2421250451      -20.3920649537  MEMB      131             0.0000000000
     15200       131  SAPE      P              -4.8334429805       23.2634757158      -19.3634520153  MEMB      131             0.0000000000
     15201       131  SAPE      O13            -4.4606896737       21.8473665748      -19.5919316399  MEMB      131             0.0000000000
     15202       131  SAPE      O14            -3.8240032333       23.9974071729      -18.5907539760  MEMB      131             0.0000000000
     15203       131  SAPE      O12            -4.9312023038       23.9216105640      -20.7827832133  MEMB      131             0.0000000000
     15204       131  SAPE      O11            -6.2662752523       23.4164238337      -18.7619428718  MEMB      131             0.0000000000
     15205       131  SAPE      C1             -6.7308807901       22.4040332825      -17.7471937494  MEMB      131             0.0000000000
     15206       131  SAPE      HA             -7.1505667663       21.5435793462      -18.3109344018  MEMB      131             0.0000000000
     15207       131  SAPE      HB             -5.9005009270       22.0699276603      -17.0890419646  MEMB      131             0.0000000000
     15208       131  SAPE      C2             -7.7317657917       23.0330448589      -16.7844607084  MEMB      131             0.0000000000
     15209       131  SAPE      HS             -8.5227438825       23.4086615785      -17.4682639147  MEMB      131             0.0000000000
     15210       131  SAPE      O21            -7.0062292882       24.0835455389      -16.2282916486  MEMB      131             0.0000000000
     15211       131  SAPE      C21            -7.4992530859       25.2691655807      -16.1546326713  MEMB      131             0.0000000000
     15212       131  SAPE      O22            -8.5787030679       25.5964581531      -16.5965464696  MEMB      131             0.0000000000
     15213       131  SAPE      C22            -6.5822020335       26.2357840844      -15.3592190126  MEMB      131             0.0000000000
     15214       131  SAPE      H2R            -6.1561052133       26.9212068565      -16.1227359612  MEMB      131             0.0000000000
     15215       131  SAPE      H2S            -7.1634552473       26.8767006039      -14.6623032290  MEMB      131             0.0000000000
     15216       131  SAPE      C3             -8.3642874383       22.1734043982      -15.6694914719  MEMB      131             0.0000000000
     15217       131  SAPE      HX             -9.1686416289       21.5158397730      -16.0631205560  MEMB      131             0.0000000000
     15218       131  SAPE      HY             -8.8262603097       22.7789019584      -14.8606187582  MEMB      131             0.0000000000
     15219       131  SAPE      O31            -7.3449330443       21.3852891370      -14.9992436515  MEMB      131             0.0000000000
     15220       131  SAPE      C31            -7.7693668245       20.6838221979      -13.9846056416  MEMB      131             0.0000000000
     15221       131  SAPE      O32            -8.9735158287       20.4893518684      -13.7183404811  MEMB      131             0.0000000000
     15222       131  SAPE      C32            -6.6178938024       19.9700079076      -13.2506464448  MEMB      131             0.0000000000
     15223       131  SAPE      H2X            -5.6698016784       20.4774087908      -13.5299075761  MEMB      131             0.0000000000
     15224       131  SAPE      H2Y            -6.6044593223       18.8638890768      -13.3538067256  MEMB      131             0.0000000000
     15225       131  SAPE      C23            -5.3547736450       25.5365761346      -14.7215296233  MEMB      131             0.0000000000
     15226       131  SAPE      H3R            -4.8005036459       24.8403560665      -15.3866486827  MEMB      131             0.0000000000
     15227       131  SAPE      H3S            -5.5953845688       24.9818587747      -13.7894801615  MEMB      131             0.0000000000
     15228       131  SAPE      C24            -4.3967694426       26.7023696073      -14.3897878220  MEMB      131             0.0000000000
     15229       131  SAPE      H4R            -3.7730573156       26.9890708995      -15.2633472806  MEMB      131             0.0000000000
     15230       131  SAPE      H4S            -3.5656734178       26.2837172904      -13.7828853176  MEMB      131             0.0000000000
     15231       131  SAPE      C25            -4.8684361248       27.8268374391      -13.5457989771  MEMB      131             0.0000000000
     15232       131  SAPE      H5R            -5.5700952163       28.5016772575      -14.0579179236  MEMB      131             0.0000000000
     15233       131  SAPE      C26            -4.6060400522       28.1426075544      -12.3313369575  MEMB      131             0.0000000000
     15234       131  SAPE      H6R            -4.9810780991       29.0965196285      -11.9320892102  MEMB      131             0.0000000000
     15235       131  SAPE      C27            -3.6688433703       27.4318558829      -11.4475324676  MEMB      131             0.0000000000
     15236       131  SAPE      H7R            -3.4819145403       28.0553172588      -10.5471573957  MEMB      131             0.0000000000
     15237       131  SAPE      H7S            -2.7067755562       27.2773989395      -11.9812825198  MEMB      131             0.0000000000
     15238       131  SAPE      C28            -4.1374456388       25.9685636654      -11.1013188195  MEMB      131             0.0000000000
     15239       131  SAPE      H8R            -3.6412533166       25.1501962934      -11.6435989198  MEMB      131             0.0000000000
     15240       131  SAPE      C29            -5.1671895398       25.6561100436      -10.3204333953  MEMB      131             0.0000000000
     15241       131  SAPE      H9R            -5.3851344280       24.6038782065      -10.0852571067  MEMB      131             0.0000000000
     15242       131  SAPE      C210           -6.0964318060       26.6501047261       -9.6156857333  MEMB      131             0.0000000000
     15243       131  SAPE      H10R           -5.8551441364       27.7291235641       -9.7244046654  MEMB      131             0.0000000000
     15244       131  SAPE      H10S           -5.7489900184       26.4553685565       -8.5785343405  MEMB      131             0.0000000000
     15245       131  SAPE      C211           -7.5626230603       26.5319707949       -9.7458080327  MEMB      131             0.0000000000
     15246       131  SAPE      H11R           -7.9346260893       27.1768960707      -10.5555515735  MEMB      131             0.0000000000
     15247       131  SAPE      C212           -8.3963756134       25.7914396102       -8.9791332231  MEMB      131             0.0000000000
     15248       131  SAPE      H12R           -9.4809954980       25.8341560202       -9.1573885352  MEMB      131             0.0000000000
     15249       131  SAPE      C213           -8.0101480494       24.9675091236       -7.8323025039  MEMB      131             0.0000000000
     15250       131  SAPE      H13R           -7.4944629648       25.7051598612       -7.1809496665  MEMB      131             0.0000000000
     15251       131  SAPE      H13S           -7.1726899273       24.3138401004       -8.1574210730  MEMB      131             0.0000000000
     15252       131  SAPE      C214           -9.2727903790       24.3056047419       -7.2295295218  MEMB      131             0.0000000000
     15253       131  SAPE      H14R          -10.0766044260       24.9487534317       -6.8419180148  MEMB      131             0.0000000000
     15254       131  SAPE      C215           -9.5662155764       22.9823694755       -7.0854076599  MEMB      131             0.0000000000
     15255       131  SAPE      H15R          -10.5168029151       22.6269151891       -6.6611003432  MEMB      131             0.0000000000
     15256       131  SAPE      C216           -8.6647754487       21.8509851478       -7.4768960739  MEMB      131             0.0000000000
     15257       131  SAPE      H16R           -7.6499728124       22.1461771473       -7.8194731043  MEMB      131             0.0000000000
     15258       131  SAPE      H16S           -9.0170362273       21.3293224794       -8.3923754355  MEMB      131             0.0000000000
     15259       131  SAPE      C217           -8.3307665351       20.7890374159       -6.4710542811  MEMB      131             0.0000000000
     15260       131  SAPE      H17R           -7.7064800940       19.9773808001       -6.9021010933  MEMB      131             0.0000000000
     15261       131  SAPE      H17S           -9.1749652609       20.2878367892       -5.9510083029  MEMB      131             0.0000000000
     15262       131  SAPE      C218           -7.5355205946       21.2750535597       -5.2839103290  MEMB      131             0.0000000000
     15263       131  SAPE      H18R           -8.0739381913       22.0666548856       -4.7201776185  MEMB      131             0.0000000000
     15264       131  SAPE      H18S           -6.6152685444       21.8046431973       -5.6110061505  MEMB      131             0.0000000000
     15265       131  SAPE      C219           -6.9802463444       20.2097209245       -4.2830997415  MEMB      131             0.0000000000
     15266       131  SAPE      H19R           -6.4314418875       19.4479392400       -4.8770885863  MEMB      131             0.0000000000
     15267       131  SAPE      H19S           -7.8491714458       19.6174898914       -3.9245552410  MEMB      131             0.0000000000
     15268       131  SAPE      C220           -6.2788770119       20.6243897724       -2.9725951332  MEMB      131             0.0000000000
     15269       131  SAPE      H20R           -6.3237687565       19.7889834620       -2.2415671469  MEMB      131             0.0000000000
     15270       131  SAPE      H20S           -6.8455749652       21.4462974765       -2.4851089452  MEMB      131             0.0000000000
     15271       131  SAPE      H20T           -5.2632091091       20.9930512864       -3.2311071389  MEMB      131             0.0000000000
     15272       131  SAPE      C33            -6.7691358364       20.1797375512      -11.6634621565  MEMB      131             0.0000000000
     15273       131  SAPE      H3X            -7.5723037224       19.4906730763      -11.3251840741  MEMB      131             0.0000000000
     15274       131  SAPE      H3Y            -6.9975397344       21.2365968863      -11.4081168287  MEMB      131             0.0000000000
     15275       131  SAPE      C34            -5.5957404724       19.8188830233      -10.7167452528  MEMB      131             0.0000000000
     15276       131  SAPE      H4X            -5.6145798750       18.7134649294      -10.8263674480  MEMB      131             0.0000000000
     15277       131  SAPE      H4Y            -5.8036129324       20.0256099724       -9.6451234763  MEMB      131             0.0000000000
     15278       131  SAPE      C35            -4.1954605643       20.3230049000      -11.1483349870  MEMB      131             0.0000000000
     15279       131  SAPE      H5X            -3.9531836037       20.3122329271      -12.2325430526  MEMB      131             0.0000000000
     15280       131  SAPE      H5Y            -3.4160691838       19.7574827966      -10.5942096083  MEMB      131             0.0000000000
     15281       131  SAPE      C36            -3.8781219791       21.8393980968      -10.7997000411  MEMB      131             0.0000000000
     15282       131  SAPE      H6X            -3.9802807964       21.9178350236       -9.6961912259  MEMB      131             0.0000000000
     15283       131  SAPE      H6Y            -4.6482575815       22.4306981251      -11.3396785690  MEMB      131             0.0000000000
     15284       131  SAPE      C37            -2.3790605482       22.1407435041      -11.2152902252  MEMB      131             0.0000000000
     15285       131  SAPE      H7X            -2.3221406503       23.2287460426      -10.9977320932  MEMB      131             0.0000000000
     15286       131  SAPE      H7Y            -2.0877398927       21.9686015629      -12.2735063240  MEMB      131             0.0000000000
     15287       131  SAPE      C38            -1.2995596999       21.6083398767      -10.2550693560  MEMB      131             0.0000000000
     15288       131  SAPE      H8X            -0.2907813707       21.9153173483      -10.6050002998  MEMB      131             0.0000000000
     15289       131  SAPE      H8Y            -1.3469655625       20.5027202126      -10.3534509436  MEMB      131             0.0000000000
     15290       131  SAPE      C39            -1.3239629820       21.9303952077       -8.7762576908  MEMB      131             0.0000000000
     15291       131  SAPE      H9X            -0.3492475410       21.6228292579       -8.3407654465  MEMB      131             0.0000000000
     15292       131  SAPE      H9Y            -2.0662661504       21.3559449261       -8.1818553539  MEMB      131             0.0000000000
     15293       131  SAPE      C310           -1.5352420539       23.4469365656       -8.5014797043  MEMB      131             0.0000000000
     15294       131  SAPE      H10X           -2.6101480254       23.6839882264       -8.6521613696  MEMB      131             0.0000000000
     15295       131  SAPE      H10Y           -0.9406650789       24.0297983031       -9.2370545280  MEMB      131             0.0000000000
     15296       131  SAPE      C311           -1.1597063477       23.9827052930       -7.1416747370  MEMB      131             0.0000000000
     15297       131  SAPE      H11X           -0.5328035347       24.8984506164       -7.0894820539  MEMB      131             0.0000000000
     15298       131  SAPE      H11Y           -0.5660492844       23.2216300234       -6.5915320688  MEMB      131             0.0000000000
     15299       131  SAPE      C312           -2.4024548567       24.2670779688       -6.2198026160  MEMB      131             0.0000000000
     15300       131  SAPE      H12X           -2.0578456063       24.7091660926       -5.2605720306  MEMB      131             0.0000000000
     15301       131  SAPE      H12Y           -2.8885275453       23.2695001890       -6.1660149614  MEMB      131             0.0000000000
     15302       131  SAPE      C313           -3.4018679874       25.2555624541       -6.8500563498  MEMB      131             0.0000000000
     15303       131  SAPE      H13X           -3.9306523575       24.6275716134       -7.5986119286  MEMB      131             0.0000000000
     15304       131  SAPE      H13Y           -2.8268271428       26.1122246445       -7.2620990247  MEMB      131             0.0000000000
     15305       131  SAPE      C314           -4.5810089271       25.7355068706       -5.9357626697  MEMB      131             0.0000000000
     15306       131  SAPE      H14X           -5.2061230421       24.9479338638       -5.4632347852  MEMB      131             0.0000000000
     15307       131  SAPE      H14Y           -5.2691699298       26.3516951152       -6.5530696243  MEMB      131             0.0000000000
     15308       131  SAPE      C315           -4.0398675621       26.5457423237       -4.7176956718  MEMB      131             0.0000000000
     15309       131  SAPE      H15X           -3.3343122236       27.3543451275       -5.0052269316  MEMB      131             0.0000000000
     15310       131  SAPE      H15Y           -3.4320274387       25.9639051076       -3.9922186667  MEMB      131             0.0000000000
     15311       131  SAPE      C316           -5.2140893952       27.2975757173       -3.9857874770  MEMB      131             0.0000000000
     15312       131  SAPE      H16X           -5.5843680448       28.1197788875       -4.6347843756  MEMB      131             0.0000000000
     15313       131  SAPE      H16Y           -4.8142626984       27.7733649636       -3.0648724935  MEMB      131             0.0000000000
     15314       131  SAPE      C317           -6.3603532193       26.3970579842       -3.5564219545  MEMB      131             0.0000000000
     15315       131  SAPE      H17X           -6.8558703045       26.1395364516       -4.5168733505  MEMB      131             0.0000000000
     15316       131  SAPE      H17Y           -7.1770507639       26.9327105319       -3.0268915975  MEMB      131             0.0000000000
     15317       131  SAPE      C318           -5.9248901735       25.1377164588       -2.8062668954  MEMB      131             0.0000000000
     15318       131  SAPE      H18X           -6.7350003549       24.3821641858       -2.7215165806  MEMB      131             0.0000000000
     15319       131  SAPE      H18Y           -5.3866392607       25.3677635015       -1.8619762271  MEMB      131             0.0000000000
     15320       131  SAPE      H18Z           -5.1682301645       24.5409986939       -3.3591818103  MEMB      131             0.0000000000
     15321       132  CHL1      C3              9.8538231728      -22.9652257306      -17.3219300000  MEMB      132             0.0000000000
     15322       132  CHL1      H3              9.1582158474      -22.1010667528      -17.2614400000  MEMB      132             0.0000000000
     15323       132  CHL1      O3              9.9863901072      -23.3881452694      -18.6780700000  MEMB      132             0.0000000000
     15324       132  CHL1      H3'            10.7353688097      -22.8325514940      -18.9059800000  MEMB      132             0.0000000000
     15325       132  CHL1      C4             11.1918229464      -22.6072456156      -16.8029100000  MEMB      132             0.0000000000
     15326       132  CHL1      H4A            11.8068051053      -23.5324168177      -16.7902300000  MEMB      132             0.0000000000
     15327       132  CHL1      H4B            11.7110128582      -21.8429995549      -17.4199200000  MEMB      132             0.0000000000
     15328       132  CHL1      C5             11.0078598857      -22.1365610070      -15.3633900000  MEMB      132             0.0000000000
     15329       132  CHL1      C6             11.2935362451      -20.8830738032      -14.9514100000  MEMB      132             0.0000000000
     15330       132  CHL1      H6             11.7417969147      -20.2942082921      -15.7652300000  MEMB      132             0.0000000000
     15331       132  CHL1      C7             11.1076615879      -20.3996548041      -13.5458300000  MEMB      132             0.0000000000
     15332       132  CHL1      H7A            12.0054073843      -19.7885568209      -13.3114500000  MEMB      132             0.0000000000
     15333       132  CHL1      H7B            10.2795635134      -19.6596343047      -13.5151900000  MEMB      132             0.0000000000
     15334       132  CHL1      C8             10.9075696268      -21.4352419087      -12.5057800000  MEMB      132             0.0000000000
     15335       132  CHL1      H8             11.8705704744      -21.9597295653      -12.3273000000  MEMB      132             0.0000000000
     15336       132  CHL1      C14            10.5352222948      -20.8875623076      -11.0919500000  MEMB      132             0.0000000000
     15337       132  CHL1      H14             9.6199635523      -20.2767237928      -11.2452100000  MEMB      132             0.0000000000
     15338       132  CHL1      C15            11.4701042087      -19.8557375679      -10.4074700000  MEMB      132             0.0000000000
     15339       132  CHL1      H15A           12.4962269927      -20.2541821381      -10.5579300000  MEMB      132             0.0000000000
     15340       132  CHL1      H15B           11.4225373715      -18.8447332014      -10.8656400000  MEMB      132             0.0000000000
     15341       132  CHL1      C16            11.0857774114      -19.8613064837       -8.9746000000  MEMB      132             0.0000000000
     15342       132  CHL1      H16A           12.0019505905      -20.1846077927       -8.4356900000  MEMB      132             0.0000000000
     15343       132  CHL1      H16B           10.6748902052      -18.9067346759       -8.5818100000  MEMB      132             0.0000000000
     15344       132  CHL1      C17            10.0242646988      -20.9864613673       -8.8208300000  MEMB      132             0.0000000000
     15345       132  CHL1      H17             9.0490517508      -20.5365883312       -9.1052400000  MEMB      132             0.0000000000
     15346       132  CHL1      C13            10.2607617554      -22.0047001955      -10.0406600000  MEMB      132             0.0000000000
     15347       132  CHL1      C18            11.5161644361      -22.8098071182       -9.7010500000  MEMB      132             0.0000000000
     15348       132  CHL1      H18A           12.3855226241      -22.1344351162       -9.5513900000  MEMB      132             0.0000000000
     15349       132  CHL1      H18B           11.2883304807      -23.4050941907       -8.7910800000  MEMB      132             0.0000000000
     15350       132  CHL1      H18C           11.7844597834      -23.4875858330      -10.5394800000  MEMB      132             0.0000000000
     15351       132  CHL1      C12             9.1333511042      -22.9322358720      -10.4423800000  MEMB      132             0.0000000000
     15352       132  CHL1      H12A            9.0754916661      -23.7495921779       -9.6921100000  MEMB      132             0.0000000000
     15353       132  CHL1      H12B            8.1970863903      -22.3344566820      -10.4620300000  MEMB      132             0.0000000000
     15354       132  CHL1      C11             9.4383692259      -23.5164026990      -11.9209800000  MEMB      132             0.0000000000
     15355       132  CHL1      H11A           10.1877721011      -24.3363378730      -11.9005800000  MEMB      132             0.0000000000
     15356       132  CHL1      H11B            8.5267387558      -24.0017797678      -12.3304400000  MEMB      132             0.0000000000
     15357       132  CHL1      C9              9.8591801734      -22.4474105534      -13.0329200000  MEMB      132             0.0000000000
     15358       132  CHL1      H9              8.9503604668      -21.8796544041      -13.3262400000  MEMB      132             0.0000000000
     15359       132  CHL1      C10            10.3225657322      -23.0870746947      -14.3851700000  MEMB      132             0.0000000000
     15360       132  CHL1      C19            11.4099267864      -24.2423935662      -14.2788700000  MEMB      132             0.0000000000
     15361       132  CHL1      H19A           11.5807601894      -24.7614801860      -15.2461800000  MEMB      132             0.0000000000
     15362       132  CHL1      H19B           12.3717905913      -23.9061341603      -13.8360600000  MEMB      132             0.0000000000
     15363       132  CHL1      H19C           11.0571922356      -25.0759414146      -13.6345900000  MEMB      132             0.0000000000
     15364       132  CHL1      C1              9.0230726993      -23.6294112238      -15.0351000000  MEMB      132             0.0000000000
     15365       132  CHL1      H1A             8.7942555637      -24.5150870411      -14.4045900000  MEMB      132             0.0000000000
     15366       132  CHL1      H1B             8.0900454328      -23.0264809044      -15.0509700000  MEMB      132             0.0000000000
     15367       132  CHL1      C2              9.2453729385      -24.1434750180      -16.4662600000  MEMB      132             0.0000000000
     15368       132  CHL1      H2A             8.3403926153      -24.6238661318      -16.8958600000  MEMB      132             0.0000000000
     15369       132  CHL1      H2B             9.9830834785      -24.9742031803      -16.4691200000  MEMB      132             0.0000000000
     15370       132  CHL1      C20             9.8841155879      -21.5219618372       -7.3600200000  MEMB      132             0.0000000000
     15371       132  CHL1      H20            10.7984527640      -22.1234770524       -7.1690200000  MEMB      132             0.0000000000
     15372       132  CHL1      C21             8.6495844064      -22.3227943327       -7.0812800000  MEMB      132             0.0000000000
     15373       132  CHL1      H21A            8.7363214883      -22.6766166876       -6.0317100000  MEMB      132             0.0000000000
     15374       132  CHL1      H21B            8.3395670323      -22.9626821686       -7.9349500000  MEMB      132             0.0000000000
     15375       132  CHL1      H21C            7.8489027459      -21.5559586651       -7.0093600000  MEMB      132             0.0000000000
     15376       132  CHL1      C22            10.1309658357      -20.3195130920       -6.4294200000  MEMB      132             0.0000000000
     15377       132  CHL1      H22A           11.1448096362      -19.9147007009       -6.6357500000  MEMB      132             0.0000000000
     15378       132  CHL1      H22B            9.3536201049      -19.5300933374       -6.5123500000  MEMB      132             0.0000000000
     15379       132  CHL1      C23            10.3395717419      -20.7223916613       -4.9905200000  MEMB      132             0.0000000000
     15380       132  CHL1      H23A            9.3963863177      -21.0613548773       -4.5111100000  MEMB      132             0.0000000000
     15381       132  CHL1      H23B           11.1199510941      -21.5122174219       -4.9515900000  MEMB      132             0.0000000000
     15382       132  CHL1      C24            10.9112814826      -19.6794239651       -4.0628000000  MEMB      132             0.0000000000
     15383       132  CHL1      H24A           11.8170210936      -19.2052074106       -4.4976300000  MEMB      132             0.0000000000
     15384       132  CHL1      H24B           10.1981341048      -18.8277307589       -4.0440100000  MEMB      132             0.0000000000
     15385       132  CHL1      C25            11.1898504714      -20.1301490900       -2.6389800000  MEMB      132             0.0000000000
     15386       132  CHL1      H25            10.3440016917      -20.5835137158       -2.0792400000  MEMB      132             0.0000000000
     15387       132  CHL1      C26            12.2620251493      -21.1687406876       -2.5013500000  MEMB      132             0.0000000000
     15388       132  CHL1      H26A           12.6037797045      -21.1796795700       -1.4442700000  MEMB      132             0.0000000000
     15389       132  CHL1      H26B           12.0086980853      -22.1704914756       -2.9095700000  MEMB      132             0.0000000000
     15390       132  CHL1      H26C           13.1405286667      -20.9734849713       -3.1528300000  MEMB      132             0.0000000000
     15391       132  CHL1      C27            11.6493088032      -18.9375306338       -1.7727300000  MEMB      132             0.0000000000
     15392       132  CHL1      H27A           11.6064696733      -19.2156225343       -0.6979500000  MEMB      132             0.0000000000
     15393       132  CHL1      H27B           12.6694723921      -18.5476676600       -1.9766800000  MEMB      132             0.0000000000
     15394       132  CHL1      H27C           10.9697867843      -18.0587742619       -1.7917500000  MEMB      132             0.0000000000
     15395       133  OSM       N             -25.8357583643       -2.8339764110      -21.2886063267  MEMB      133             0.0000000000
     15396       133  OSM       C15           -25.9286027906       -4.0838128482      -20.5538421654  MEMB      133             0.0000000000
     15397       133  OSM       H15A          -26.8647335008       -4.5624076521      -20.8008374576  MEMB      133             0.0000000000
     15398       133  OSM       H15B          -25.8135208178       -3.9627517636      -19.4868368144  MEMB      133             0.0000000000
     15399       133  OSM       H15C          -25.0674482460       -4.6785463817      -20.8204974800  MEMB      133             0.0000000000
     15400       133  OSM       C14           -25.5288314808       -2.9701287530      -22.7429555534  MEMB      133             0.0000000000
     15401       133  OSM       H14A          -26.3719063056       -3.3630285874      -23.2918221950  MEMB      133             0.0000000000
     15402       133  OSM       H14B          -24.7029159559       -3.6146233909      -23.0054251753  MEMB      133             0.0000000000
     15403       133  OSM       H14C          -25.1661679063       -2.0258923582      -23.1214958542  MEMB      133             0.0000000000
     15404       133  OSM       C13           -27.1139372318       -2.0715743372      -21.1010788120  MEMB      133             0.0000000000
     15405       133  OSM       H13A          -27.9270662224       -2.7430841490      -20.8680650212  MEMB      133             0.0000000000
     15406       133  OSM       H13B          -27.4665147592       -1.4516682113      -21.9121308877  MEMB      133             0.0000000000
     15407       133  OSM       H13C          -27.0134096523       -1.2931200746      -20.3592544514  MEMB      133             0.0000000000
     15408       133  OSM       C12           -24.7237612560       -2.0161014417      -20.6212966026  MEMB      133             0.0000000000
     15409       133  OSM       H12A          -23.8593600140       -2.6623762390      -20.6605316881  MEMB      133             0.0000000000
     15410       133  OSM       H12B          -24.8443933385       -1.8403206861      -19.5625478070  MEMB      133             0.0000000000
     15411       133  OSM       C11           -24.3055109804       -0.6285108905      -21.1113257928  MEMB      133             0.0000000000
     15412       133  OSM       H11A          -23.8571813155       -0.6971706532      -22.1255285587  MEMB      133             0.0000000000
     15413       133  OSM       H11B          -23.4807409818       -0.4066081946      -20.4008086708  MEMB      133             0.0000000000
     15414       133  OSM       P             -25.1294795109        1.8218107709      -20.7586366490  MEMB      133             0.0000000000
     15415       133  OSM       O13           -23.8619860458        2.2375309653      -21.4114279752  MEMB      133             0.0000000000
     15416       133  OSM       O14           -26.3805763314        2.5243835716      -21.1040713965  MEMB      133             0.0000000000
     15417       133  OSM       O11           -25.0039454067        1.9662585594      -19.1340305517  MEMB      133             0.0000000000
     15418       133  OSM       O12           -25.3599941990        0.3446260899      -21.1727281741  MEMB      133             0.0000000000
     15419       133  OSM       C1S           -23.8292947588        2.4995331299      -18.5080610576  MEMB      133             0.0000000000
     15420       133  OSM       H1S           -23.8910637110        3.6014621964      -18.6355679051  MEMB      133             0.0000000000
     15421       133  OSM       H1T           -22.8665254719        2.0404413409      -18.8189164492  MEMB      133             0.0000000000
     15422       133  OSM       NF            -23.8634445978        0.8387744294      -16.6600278280  MEMB      133             0.0000000000
     15423       133  OSM       HNF           -24.4456855975        0.6910446628      -15.8643013639  MEMB      133             0.0000000000
     15424       133  OSM       C2S           -23.8550964297        2.2381009440      -17.0082809036  MEMB      133             0.0000000000
     15425       133  OSM       H2S           -22.9948962217        2.7557012236      -16.5323961854  MEMB      133             0.0000000000
     15426       133  OSM       C3S           -25.1065394939        2.8668496383      -16.3530163504  MEMB      133             0.0000000000
     15427       133  OSM       H3S           -25.9370033055        2.2710478536      -16.7885289271  MEMB      133             0.0000000000
     15428       133  OSM       O3            -25.2174109426        4.2390705271      -16.7053957571  MEMB      133             0.0000000000
     15429       133  OSM       HO3           -24.6362210259        4.2941500742      -17.4674878755  MEMB      133             0.0000000000
     15430       133  OSM       C4S           -25.0103251601        2.7095861320      -14.8886248084  MEMB      133             0.0000000000
     15431       133  OSM       H4S           -24.3927285009        3.3526674593      -14.2444036437  MEMB      133             0.0000000000
     15432       133  OSM       C5S           -25.6457365276        1.7886904607      -14.2041261289  MEMB      133             0.0000000000
     15433       133  OSM       H5S           -26.3493967965        1.0888921647      -14.6786199633  MEMB      133             0.0000000000
     15434       133  OSM       C6S           -25.6375420681        1.5790113773      -12.7057492772  MEMB      133             0.0000000000
     15435       133  OSM       H6S           -24.9554131752        0.7182182527      -12.5382482648  MEMB      133             0.0000000000
     15436       133  OSM       H6T           -26.6681884975        1.3123996834      -12.3879337421  MEMB      133             0.0000000000
     15437       133  OSM       C7S           -24.9822003897        2.5852616820      -11.7963873239  MEMB      133             0.0000000000
     15438       133  OSM       H7S           -25.4769169679        3.5746092880      -11.9001553050  MEMB      133             0.0000000000
     15439       133  OSM       H7T           -23.8935507834        2.7158887783      -11.9755506839  MEMB      133             0.0000000000
     15440       133  OSM       C8S           -24.9352613571        2.0983207714      -10.3365452854  MEMB      133             0.0000000000
     15441       133  OSM       H8S           -24.1933172566        2.6663851293       -9.7355932431  MEMB      133             0.0000000000
     15442       133  OSM       H8T           -24.6440276971        1.0268693257      -10.3752193757  MEMB      133             0.0000000000
     15443       133  OSM       C9S           -26.3352786066        2.2744424606       -9.6050867875  MEMB      133             0.0000000000
     15444       133  OSM       H9S           -26.9792590142        1.6469821707      -10.2576997273  MEMB      133             0.0000000000
     15445       133  OSM       H9T           -26.5817910582        3.3405631589       -9.4128914140  MEMB      133             0.0000000000
     15446       133  OSM       C10S          -26.3439492374        1.6346964276       -8.1471403070  MEMB      133             0.0000000000
     15447       133  OSM       H10S          -27.3371819996        1.6604544306       -7.6500019507  MEMB      133             0.0000000000
     15448       133  OSM       H10T          -25.5490715096        2.0662605857       -7.5019712670  MEMB      133             0.0000000000
     15449       133  OSM       C11S          -25.9543865789        0.1533598315       -8.0638071511  MEMB      133             0.0000000000
     15450       133  OSM       H11S          -24.9167828015        0.0025826729       -8.4311843424  MEMB      133             0.0000000000
     15451       133  OSM       H11T          -26.5103063486       -0.3831389531       -8.8622080165  MEMB      133             0.0000000000
     15452       133  OSM       C12S          -26.1660302804       -0.5885206924       -6.7045139708  MEMB      133             0.0000000000
     15453       133  OSM       H12S          -25.4685836445       -0.0720440955       -6.0108707888  MEMB      133             0.0000000000
     15454       133  OSM       H12T          -25.8290556998       -1.6466333511       -6.7386713780  MEMB      133             0.0000000000
     15455       133  OSM       C13S          -27.5632494052       -0.6655607343       -6.1139998182  MEMB      133             0.0000000000
     15456       133  OSM       H13S          -28.2928522394       -1.0430571790       -6.8619953540  MEMB      133             0.0000000000
     15457       133  OSM       H13T          -27.9480608433        0.3104296520       -5.7483716710  MEMB      133             0.0000000000
     15458       133  OSM       C14S          -27.7045177313       -1.6267181725       -5.0045432218  MEMB      133             0.0000000000
     15459       133  OSM       H14S          -26.8612324000       -2.3435689322       -4.9080231335  MEMB      133             0.0000000000
     15460       133  OSM       H14T          -28.6128878581       -2.2377663733       -5.1937648663  MEMB      133             0.0000000000
     15461       133  OSM       C15S          -27.8325392888       -1.1029956833       -3.5689694877  MEMB      133             0.0000000000
     15462       133  OSM       H15S          -28.0817127833       -0.0221795968       -3.5051734076  MEMB      133             0.0000000000
     15463       133  OSM       H15T          -26.8769430662       -1.2903274262       -3.0341204102  MEMB      133             0.0000000000
     15464       133  OSM       C16S          -28.9223431819       -1.7991831905       -2.7983763381  MEMB      133             0.0000000000
     15465       133  OSM       H16S          -28.7272958743       -2.8920841994       -2.8413303809  MEMB      133             0.0000000000
     15466       133  OSM       H16T          -29.9104677263       -1.5097857758       -3.2157261840  MEMB      133             0.0000000000
     15467       133  OSM       C17S          -29.0928348774       -1.3625716506       -1.3335750480  MEMB      133             0.0000000000
     15468       133  OSM       H17S          -29.3634333677       -0.2883771056       -1.4184518456  MEMB      133             0.0000000000
     15469       133  OSM       H17T          -28.0966124417       -1.4966631175       -0.8604139392  MEMB      133             0.0000000000
     15470       133  OSM       C18S          -30.1275907771       -2.1491821123       -0.4075493186  MEMB      133             0.0000000000
     15471       133  OSM       H18S          -31.0606434904       -1.8332919873       -0.9213069541  MEMB      133             0.0000000000
     15472       133  OSM       H18T          -30.2201820147       -1.7251563446        0.6151667457  MEMB      133             0.0000000000
     15473       133  OSM       H18U          -30.0388375705       -3.2554530964       -0.4586253489  MEMB      133             0.0000000000
     15474       133  OSM       C1F           -23.0173557869       -0.1079391482      -17.0810147764  MEMB      133             0.0000000000
     15475       133  OSM       OF            -21.9950135312        0.0757465716      -17.7403083169  MEMB      133             0.0000000000
     15476       133  OSM       C2F           -23.3846469387       -1.5250113822      -16.5848714381  MEMB      133             0.0000000000
     15477       133  OSM       H2F           -22.4958324963       -2.1026835393      -16.2522682448  MEMB      133             0.0000000000
     15478       133  OSM       H2G           -23.6272515729       -2.0275010131      -17.5455839748  MEMB      133             0.0000000000
     15479       133  OSM       C3F           -24.5984594841       -1.5157268437      -15.6094744672  MEMB      133             0.0000000000
     15480       133  OSM       H3F           -25.4620698102       -1.0528856705      -16.1331885108  MEMB      133             0.0000000000
     15481       133  OSM       H3G           -24.4881865871       -1.0231473940      -14.6197643551  MEMB      133             0.0000000000
     15482       133  OSM       C4F           -25.1676046925       -2.9101686016      -15.2714669745  MEMB      133             0.0000000000
     15483       133  OSM       H4F           -25.7166044511       -3.4907643693      -16.0433664284  MEMB      133             0.0000000000
     15484       133  OSM       H4G           -25.9394354181       -2.7018356197      -14.4999778348  MEMB      133             0.0000000000
     15485       133  OSM       C5F           -24.1508902240       -3.8162819598      -14.5036532419  MEMB      133             0.0000000000
     15486       133  OSM       H5F           -23.3951541580       -3.9230393970      -15.3109860349  MEMB      133             0.0000000000
     15487       133  OSM       H5G           -24.5409755853       -4.8191840075      -14.2273523683  MEMB      133             0.0000000000
     15488       133  OSM       C6F           -23.5242262416       -3.2003666507      -13.2120180017  MEMB      133             0.0000000000
     15489       133  OSM       H6F           -22.8605939517       -2.3232253137      -13.3686577875  MEMB      133             0.0000000000
     15490       133  OSM       H6G           -22.9011113399       -4.0393593978      -12.8350036128  MEMB      133             0.0000000000
     15491       133  OSM       C7F           -24.6018467991       -3.0470899139      -12.1545201179  MEMB      133             0.0000000000
     15492       133  OSM       H7F           -25.3346085288       -3.8794498441      -12.2220342322  MEMB      133             0.0000000000
     15493       133  OSM       H7G           -25.1845237800       -2.1543667757      -12.4673361017  MEMB      133             0.0000000000
     15494       133  OSM       C8F           -24.1047503551       -2.7125682800      -10.7346954430  MEMB      133             0.0000000000
     15495       133  OSM       H8F           -24.9824419602       -2.7431441071      -10.0542223866  MEMB      133             0.0000000000
     15496       133  OSM       H8G           -23.7026376707       -1.6792974998      -10.8052491384  MEMB      133             0.0000000000
     15497       133  OSM       C9F           -23.0336384829       -3.5712011928      -10.0708759076  MEMB      133             0.0000000000
     15498       133  OSM       H9F           -23.1258861947       -4.5566501734      -10.5508553011  MEMB      133             0.0000000000
     15499       133  OSM       C10F          -22.2563674288       -3.3664911676       -9.0254980801  MEMB      133             0.0000000000
     15500       133  OSM       H10F          -21.6071494245       -4.1935010024       -8.7021247803  MEMB      133             0.0000000000
     15501       133  OSM       C11F          -22.2196230727       -2.1581440315       -8.1243342300  MEMB      133             0.0000000000
     15502       133  OSM       H11F          -22.8530727225       -1.3544684563       -8.5569626047  MEMB      133             0.0000000000
     15503       133  OSM       H11G          -21.1581492402       -1.8304555114       -8.1389782036  MEMB      133             0.0000000000
     15504       133  OSM       C12F          -22.4703859421       -2.3837545666       -6.6605574251  MEMB      133             0.0000000000
     15505       133  OSM       H12F          -22.1969673116       -3.4072126179       -6.3257479459  MEMB      133             0.0000000000
     15506       133  OSM       H12G          -23.5449774588       -2.2600957599       -6.4070174027  MEMB      133             0.0000000000
     15507       133  OSM       C13F          -21.7638505666       -1.2808314988       -5.7899344708  MEMB      133             0.0000000000
     15508       133  OSM       H13F          -22.1847397864       -0.3344822751       -6.1919244664  MEMB      133             0.0000000000
     15509       133  OSM       H13G          -20.6609626107       -1.3816870549       -5.8781832723  MEMB      133             0.0000000000
     15510       133  OSM       C14F          -22.1235568271       -1.5139509048       -4.2627439365  MEMB      133             0.0000000000
     15511       133  OSM       H14F          -21.6639767907       -2.4997536626       -4.0362452934  MEMB      133             0.0000000000
     15512       133  OSM       H14G          -23.2092695628       -1.5995935640       -4.0431649109  MEMB      133             0.0000000000
     15513       133  OSM       C15F          -21.5021043798       -0.5014956449       -3.2770605753  MEMB      133             0.0000000000
     15514       133  OSM       H15F          -20.5420902913       -0.1969420656       -3.7460395877  MEMB      133             0.0000000000
     15515       133  OSM       H15G          -21.4205817238       -0.8812458412       -2.2361649779  MEMB      133             0.0000000000
     15516       133  OSM       C16F          -22.5340562889        0.6988038569       -3.1691074520  MEMB      133             0.0000000000
     15517       133  OSM       H16F          -22.8824218089        0.9697237923       -4.1886985655  MEMB      133             0.0000000000
     15518       133  OSM       H16G          -21.8876490610        1.4822648179       -2.7189203621  MEMB      133             0.0000000000
     15519       133  OSM       C17F          -23.7181740390        0.4795910034       -2.1931583909  MEMB      133             0.0000000000
     15520       133  OSM       H17F          -23.3767845176        0.1903021725       -1.1762581364  MEMB      133             0.0000000000
     15521       133  OSM       H17G          -24.2952503845       -0.3938245676       -2.5652456949  MEMB      133             0.0000000000
     15522       133  OSM       C18F          -24.4978900528        1.8030901227       -1.9933807737  MEMB      133             0.0000000000
     15523       133  OSM       H18F          -25.1911361799        1.7644014029       -1.1260674971  MEMB      133             0.0000000000
     15524       133  OSM       H18G          -25.0290344272        2.2085437890       -2.8809704679  MEMB      133             0.0000000000
     15525       133  OSM       H18H          -23.6942475014        2.5312069087       -1.7518734933  MEMB      133             0.0000000000
     15526       134  OSM       N              26.7694453925       -1.3756612561      -22.4576736285  MEMB      134             0.0000000000
     15527       134  OSM       C15            28.0172757529       -0.7103635101      -21.8980141072  MEMB      134             0.0000000000
     15528       134  OSM       H15A           27.7127814155        0.3030401786      -21.6819205697  MEMB      134             0.0000000000
     15529       134  OSM       H15B           28.8461206425       -0.7282923882      -22.5901808492  MEMB      134             0.0000000000
     15530       134  OSM       H15C           28.3442934412       -1.1347377677      -20.9602689964  MEMB      134             0.0000000000
     15531       134  OSM       C14            26.2792589229       -0.5845462534      -23.6801661703  MEMB      134             0.0000000000
     15532       134  OSM       H14A           25.2231215895       -0.7224130941      -23.8589583954  MEMB      134             0.0000000000
     15533       134  OSM       H14B           26.7797270305       -0.9633288208      -24.5590606528  MEMB      134             0.0000000000
     15534       134  OSM       H14C           26.4781033466        0.4766838578      -23.6546386632  MEMB      134             0.0000000000
     15535       134  OSM       C13            27.0310605268       -2.8274593499      -22.7743301078  MEMB      134             0.0000000000
     15536       134  OSM       H13A           27.4523361980       -3.3366675153      -21.9201441391  MEMB      134             0.0000000000
     15537       134  OSM       H13B           27.7696985310       -2.7814851630      -23.5609052250  MEMB      134             0.0000000000
     15538       134  OSM       H13C           26.0921297554       -3.2223916637      -23.1332695128  MEMB      134             0.0000000000
     15539       134  OSM       C12            25.6513036122       -1.3379616577      -21.4249841212  MEMB      134             0.0000000000
     15540       134  OSM       H12A           24.8552769057       -1.8913484248      -21.9009089762  MEMB      134             0.0000000000
     15541       134  OSM       H12B           25.4158387450       -0.2886473043      -21.3255062878  MEMB      134             0.0000000000
     15542       134  OSM       C11            25.8651254991       -1.7573764307      -19.9555662425  MEMB      134             0.0000000000
     15543       134  OSM       H11A           25.0080157277       -1.4332577475      -19.3273696922  MEMB      134             0.0000000000
     15544       134  OSM       H11B           26.6259779901       -1.1297447639      -19.4441924959  MEMB      134             0.0000000000
     15545       134  OSM       P              25.0203198643       -4.2025427026      -19.8401317052  MEMB      134             0.0000000000
     15546       134  OSM       O13            23.8153609284       -3.6227590872      -20.4608844874  MEMB      134             0.0000000000
     15547       134  OSM       O14            25.5879422792       -5.3940554344      -20.5027508654  MEMB      134             0.0000000000
     15548       134  OSM       O11            24.7318525242       -4.6074438369      -18.2995320692  MEMB      134             0.0000000000
     15549       134  OSM       O12            26.1997463918       -3.1297886098      -19.7059664946  MEMB      134             0.0000000000
     15550       134  OSM       C1S            25.8094348732       -4.7436064057      -17.3554329592  MEMB      134             0.0000000000
     15551       134  OSM       H1S            26.7553093918       -4.9103158828      -17.9138685410  MEMB      134             0.0000000000
     15552       134  OSM       H1T            25.5272134245       -5.5492691482      -16.6443917713  MEMB      134             0.0000000000
     15553       134  OSM       NF             26.9897004162       -3.6406015927      -15.5055200532  MEMB      134             0.0000000000
     15554       134  OSM       HNF            26.6564040374       -3.6927545659      -14.5673287211  MEMB      134             0.0000000000
     15555       134  OSM       C2S            25.9786548210       -3.4582203149      -16.5352957923  MEMB      134             0.0000000000
     15556       134  OSM       H2S            26.2379814074       -2.6223054453      -17.2196327115  MEMB      134             0.0000000000
     15557       134  OSM       C3S            24.6164936714       -3.0454405977      -15.8511726327  MEMB      134             0.0000000000
     15558       134  OSM       H3S            24.2796857387       -3.9539694493      -15.3076130291  MEMB      134             0.0000000000
     15559       134  OSM       O3             23.7103856423       -2.6164383873      -16.7931802038  MEMB      134             0.0000000000
     15560       134  OSM       HO3            24.1044163747       -2.8079457092      -17.6473842015  MEMB      134             0.0000000000
     15561       134  OSM       C4S            24.7842004441       -1.8990638808      -14.8629353309  MEMB      134             0.0000000000
     15562       134  OSM       H4S            24.6429572720       -0.9268550737      -15.3577692720  MEMB      134             0.0000000000
     15563       134  OSM       C5S            24.9752010623       -1.8771377185      -13.5419529729  MEMB      134             0.0000000000
     15564       134  OSM       H5S            25.0954352649       -2.8768079747      -13.0990049372  MEMB      134             0.0000000000
     15565       134  OSM       C6S            25.1864976364       -0.6066502194      -12.6653596329  MEMB      134             0.0000000000
     15566       134  OSM       H6S            24.7669343462       -0.9141639028      -11.6836661052  MEMB      134             0.0000000000
     15567       134  OSM       H6T            24.6517375430        0.2358565018      -13.1537604622  MEMB      134             0.0000000000
     15568       134  OSM       C7S            26.6452317180       -0.1554455408      -12.3262622118  MEMB      134             0.0000000000
     15569       134  OSM       H7S            26.7386871228        0.9198920602      -12.0631336740  MEMB      134             0.0000000000
     15570       134  OSM       H7T            27.2672686137       -0.2036005279      -13.2455398916  MEMB      134             0.0000000000
     15571       134  OSM       C8S            27.3837850287       -0.9239355775      -11.1618475823  MEMB      134             0.0000000000
     15572       134  OSM       H8S            28.4370678476       -0.5742423675      -11.2131425590  MEMB      134             0.0000000000
     15573       134  OSM       H8T            27.3344334039       -1.9979970712      -11.4416284210  MEMB      134             0.0000000000
     15574       134  OSM       C9S            26.9023785471       -0.5809620244       -9.7333612351  MEMB      134             0.0000000000
     15575       134  OSM       H9S            25.9207259265       -1.1006151436       -9.7080724892  MEMB      134             0.0000000000
     15576       134  OSM       H9T            26.8498457708        0.5234896839       -9.6249763512  MEMB      134             0.0000000000
     15577       134  OSM       C10S           27.8318541337       -1.1109546760       -8.6511689652  MEMB      134             0.0000000000
     15578       134  OSM       H10S           28.7589942822       -0.4990698581       -8.6693219255  MEMB      134             0.0000000000
     15579       134  OSM       H10T           28.0838857634       -2.1574160585       -8.9263403035  MEMB      134             0.0000000000
     15580       134  OSM       C11S           27.3217389968       -1.2255986134       -7.1989384864  MEMB      134             0.0000000000
     15581       134  OSM       H11S           27.4353957799       -0.2196184687       -6.7413279888  MEMB      134             0.0000000000
     15582       134  OSM       H11T           28.1057692665       -1.7965287201       -6.6570375348  MEMB      134             0.0000000000
     15583       134  OSM       C12S           25.8810959327       -1.7870172161       -7.0413809993  MEMB      134             0.0000000000
     15584       134  OSM       H12S           25.9768337556       -2.7756120637       -7.5392116652  MEMB      134             0.0000000000
     15585       134  OSM       H12T           25.2588581835       -1.2423833641       -7.7833475034  MEMB      134             0.0000000000
     15586       134  OSM       C13S           25.3080556394       -1.8364747317       -5.6457773512  MEMB      134             0.0000000000
     15587       134  OSM       H13S           26.0192877769       -2.4697281876       -5.0735369202  MEMB      134             0.0000000000
     15588       134  OSM       H13T           24.3143691796       -2.3332234349       -5.6579880587  MEMB      134             0.0000000000
     15589       134  OSM       C14S           25.1288888324       -0.5829842579       -4.8742783454  MEMB      134             0.0000000000
     15590       134  OSM       H14S           24.3453555609        0.1091103975       -5.2503124409  MEMB      134             0.0000000000
     15591       134  OSM       H14T           26.1166367105       -0.0767512097       -4.9232995782  MEMB      134             0.0000000000
     15592       134  OSM       C15S           24.8478179858       -0.8441768537       -3.3623829062  MEMB      134             0.0000000000
     15593       134  OSM       H15S           23.8891523531       -1.3770019618       -3.1852421218  MEMB      134             0.0000000000
     15594       134  OSM       H15T           24.7136141049        0.1456465712       -2.8760082133  MEMB      134             0.0000000000
     15595       134  OSM       C16S           25.8408841113       -1.7489156749       -2.6283055678  MEMB      134             0.0000000000
     15596       134  OSM       H16S           25.8287791678       -2.7203556288       -3.1672660075  MEMB      134             0.0000000000
     15597       134  OSM       H16T           25.5408289004       -1.9653649177       -1.5807183800  MEMB      134             0.0000000000
     15598       134  OSM       C17S           27.3199234635       -1.2272642041       -2.6030972826  MEMB      134             0.0000000000
     15599       134  OSM       H17S           27.3285207778       -0.1964143842       -2.1888567057  MEMB      134             0.0000000000
     15600       134  OSM       H17T           27.5029636134       -1.1811374591       -3.6979446413  MEMB      134             0.0000000000
     15601       134  OSM       C18S           28.2990859448       -2.1651018323       -1.9622017455  MEMB      134             0.0000000000
     15602       134  OSM       H18S           28.3713393196       -3.1553772350       -2.4606541632  MEMB      134             0.0000000000
     15603       134  OSM       H18T           28.0759740787       -2.3136983440       -0.8840271438  MEMB      134             0.0000000000
     15604       134  OSM       H18U           29.3640653044       -1.8564322326       -2.0319394857  MEMB      134             0.0000000000
     15605       134  OSM       C1F            28.3204049735       -3.7661233517      -15.6118702832  MEMB      134             0.0000000000
     15606       134  OSM       OF             28.9584032457       -3.2768095655      -16.5208694883  MEMB      134             0.0000000000
     15607       134  OSM       C2F            29.0112981927       -4.4699352102      -14.5315040829  MEMB      134             0.0000000000
     15608       134  OSM       H2F            29.3767394482       -3.6739815748      -13.8479608946  MEMB      134             0.0000000000
     15609       134  OSM       H2G            29.8184300274       -5.1595281798      -14.8591029631  MEMB      134             0.0000000000
     15610       134  OSM       C3F            28.1537721210       -5.3870705714      -13.7389446172  MEMB      134             0.0000000000
     15611       134  OSM       H3F            27.7540679593       -6.2028902692      -14.3784726750  MEMB      134             0.0000000000
     15612       134  OSM       H3G            27.3609544675       -4.7633267675      -13.2734290835  MEMB      134             0.0000000000
     15613       134  OSM       C4F            28.9086773979       -6.0566943473      -12.4954687062  MEMB      134             0.0000000000
     15614       134  OSM       H4F            30.0146396802       -6.1094087137      -12.5870633555  MEMB      134             0.0000000000
     15615       134  OSM       H4G            28.5873137750       -7.1172905185      -12.5740944220  MEMB      134             0.0000000000
     15616       134  OSM       C5F            28.5329534892       -5.5255453054      -11.0666378348  MEMB      134             0.0000000000
     15617       134  OSM       H5F            27.4519783939       -5.6834213764      -10.8644275302  MEMB      134             0.0000000000
     15618       134  OSM       H5G            28.6075990199       -4.4264393425      -11.2105645193  MEMB      134             0.0000000000
     15619       134  OSM       C6F            29.4314044672       -5.9921286677       -9.8229114222  MEMB      134             0.0000000000
     15620       134  OSM       H6F            30.4379544124       -5.7507832086      -10.2265580264  MEMB      134             0.0000000000
     15621       134  OSM       H6G            29.2509501733       -7.0856256829       -9.7453130263  MEMB      134             0.0000000000
     15622       134  OSM       C7F            28.9644061258       -5.1014952569       -8.6470401059  MEMB      134             0.0000000000
     15623       134  OSM       H7F            27.8680664064       -4.9988236263       -8.4993287392  MEMB      134             0.0000000000
     15624       134  OSM       H7G            29.3511482610       -4.0803238839       -8.8518829853  MEMB      134             0.0000000000
     15625       134  OSM       C8F            29.5220000836       -5.4796258303       -7.2574219094  MEMB      134             0.0000000000
     15626       134  OSM       H8F            30.6055447485       -5.7072611207       -7.3492581688  MEMB      134             0.0000000000
     15627       134  OSM       H8G            28.9505555660       -6.4106912076       -7.0552114207  MEMB      134             0.0000000000
     15628       134  OSM       C9F            29.1402681672       -4.5426882311       -6.1524705287  MEMB      134             0.0000000000
     15629       134  OSM       H9F            29.7112720847       -3.6165497997       -5.9905378652  MEMB      134             0.0000000000
     15630       134  OSM       C10F           28.2231608386       -4.7451237713       -5.1915920920  MEMB      134             0.0000000000
     15631       134  OSM       H10F           28.1329502968       -4.0184593290       -4.3707262235  MEMB      134             0.0000000000
     15632       134  OSM       C11F           27.3462142157       -5.9672606430       -5.0036246869  MEMB      134             0.0000000000
     15633       134  OSM       H11F           27.8537997048       -6.7082425846       -4.3496965642  MEMB      134             0.0000000000
     15634       134  OSM       H11G           27.0469424623       -6.4777469047       -5.9439238031  MEMB      134             0.0000000000
     15635       134  OSM       C12F           25.9405274049       -5.6707166442       -4.3611103346  MEMB      134             0.0000000000
     15636       134  OSM       H12F           25.2146465979       -6.4825133348       -4.5811203200  MEMB      134             0.0000000000
     15637       134  OSM       H12G           25.5670760133       -4.7542254069       -4.8659861123  MEMB      134             0.0000000000
     15638       134  OSM       C13F           26.0248676115       -5.3869617037       -2.9099795991  MEMB      134             0.0000000000
     15639       134  OSM       H13F           25.1201370823       -4.8006151278       -2.6416866588  MEMB      134             0.0000000000
     15640       134  OSM       H13G           26.8837092387       -4.7245738955       -2.6692420077  MEMB      134             0.0000000000
     15641       134  OSM       C14F           26.1490544291       -6.6025354362       -2.0359027447  MEMB      134             0.0000000000
     15642       134  OSM       H14F           27.0561971142       -7.2003361849       -2.2683837457  MEMB      134             0.0000000000
     15643       134  OSM       H14G           25.3164815919       -7.2416229003       -2.4001986212  MEMB      134             0.0000000000
     15644       134  OSM       C15F           25.9651614450       -6.3349340494       -0.5415341722  MEMB      134             0.0000000000
     15645       134  OSM       H15F           24.8667753084       -6.3020063902       -0.3778726332  MEMB      134             0.0000000000
     15646       134  OSM       H15G           26.4293096692       -5.3388187508       -0.3783105293  MEMB      134             0.0000000000
     15647       134  OSM       C16F           26.5354286978       -7.4436050490        0.3179435818  MEMB      134             0.0000000000
     15648       134  OSM       H16F           27.5480405414       -7.6159720563       -0.1054086142  MEMB      134             0.0000000000
     15649       134  OSM       H16G           26.0125237433       -8.3989714684        0.0984758715  MEMB      134             0.0000000000
     15650       134  OSM       C17F           26.4152418053       -7.1119417300        1.7906439117  MEMB      134             0.0000000000
     15651       134  OSM       H17F           26.8158147955       -7.9013730059        2.4619549886  MEMB      134             0.0000000000
     15652       134  OSM       H17G           25.3366370977       -6.9935055421        2.0291937928  MEMB      134             0.0000000000
     15653       134  OSM       C18F           27.1552393595       -5.8343850049        2.1572828829  MEMB      134             0.0000000000
     15654       134  OSM       H18F           27.4473828764       -5.9091881785        3.2265729316  MEMB      134             0.0000000000
     15655       134  OSM       H18G           26.6475533499       -4.8848001692        1.8836711709  MEMB      134             0.0000000000
     15656       134  OSM       H18H           28.1702102964       -5.8535039621        1.7058528794  MEMB      134             0.0000000000
     15657       135  SLPC      N             -19.8276797473      -15.1170460129      -18.5063804402  MEMB      135             0.0000000000
     15658       135  SLPC      C13           -19.8202178194      -16.1351151938      -19.6590643140  MEMB      135             0.0000000000
     15659       135  SLPC      H13A          -20.1986373557      -17.1054672708      -19.3733801181  MEMB      135             0.0000000000
     15660       135  SLPC      H13B          -20.4696686800      -15.9098158461      -20.4920431925  MEMB      135             0.0000000000
     15661       135  SLPC      H13C          -18.8132921687      -16.3174280588      -20.0044085407  MEMB      135             0.0000000000
     15662       135  SLPC      C14           -19.1412220703      -13.8233771984      -18.9107502392  MEMB      135             0.0000000000
     15663       135  SLPC      H14A          -18.1674803558      -13.9768674307      -19.3519620988  MEMB      135             0.0000000000
     15664       135  SLPC      H14B          -19.8016007122      -13.4330096477      -19.6709562115  MEMB      135             0.0000000000
     15665       135  SLPC      H14C          -19.0866083977      -13.0533712187      -18.1554299759  MEMB      135             0.0000000000
     15666       135  SLPC      C15           -19.0103361584      -15.6454126951      -17.3947785403  MEMB      135             0.0000000000
     15667       135  SLPC      H15A          -19.0728922389      -15.1056833570      -16.4614089145  MEMB      135             0.0000000000
     15668       135  SLPC      H15B          -19.4083107711      -16.6123078052      -17.1243529677  MEMB      135             0.0000000000
     15669       135  SLPC      H15C          -18.0190598024      -15.9342827424      -17.7115198715  MEMB      135             0.0000000000
     15670       135  SLPC      C12           -21.2349090166      -14.7409668690      -18.0376456016  MEMB      135             0.0000000000
     15671       135  SLPC      H12A          -21.6571629326      -14.1153701128      -18.8101287047  MEMB      135             0.0000000000
     15672       135  SLPC      H12B          -21.1309615063      -14.0538822275      -17.2108990852  MEMB      135             0.0000000000
     15673       135  SLPC      C11           -22.2335418547      -15.8800529601      -17.7342509531  MEMB      135             0.0000000000
     15674       135  SLPC      H11A          -22.4296947815      -16.3488090993      -18.7222351125  MEMB      135             0.0000000000
     15675       135  SLPC      H11B          -23.1441677123      -15.4363344854      -17.2779667441  MEMB      135             0.0000000000
     15676       135  SLPC      P             -21.7950461648      -16.6125240206      -15.3063962782  MEMB      135             0.0000000000
     15677       135  SLPC      O13           -20.5019765935      -17.0847246069      -14.7851293210  MEMB      135             0.0000000000
     15678       135  SLPC      O14           -22.2704020793      -15.2406727258      -14.8742200597  MEMB      135             0.0000000000
     15679       135  SLPC      O12           -21.7316563546      -16.8542006342      -16.8343657690  MEMB      135             0.0000000000
     15680       135  SLPC      O11           -22.8979292407      -17.7185696850      -14.9570184838  MEMB      135             0.0000000000
     15681       135  SLPC      C1            -24.2545314175      -17.3071556120      -14.9110327477  MEMB      135             0.0000000000
     15682       135  SLPC      HA            -24.4126248553      -16.3281795067      -15.4119650661  MEMB      135             0.0000000000
     15683       135  SLPC      HB            -24.7613203899      -18.0218744809      -15.5941599687  MEMB      135             0.0000000000
     15684       135  SLPC      C2            -24.9170771994      -17.2563237419      -13.5283907929  MEMB      135             0.0000000000
     15685       135  SLPC      HS            -25.9836261388      -16.9572638129      -13.6141665537  MEMB      135             0.0000000000
     15686       135  SLPC      O21           -24.1654490832      -16.3597997847      -12.7073933523  MEMB      135             0.0000000000
     15687       135  SLPC      C21           -24.3909913953      -15.0401704039      -12.6746679034  MEMB      135             0.0000000000
     15688       135  SLPC      O22           -25.2816946035      -14.4166932678      -13.1747507028  MEMB      135             0.0000000000
     15689       135  SLPC      C22           -23.4605938763      -14.4306341389      -11.6002161375  MEMB      135             0.0000000000
     15690       135  SLPC      H2R           -22.5785618269      -15.1019233041      -11.5246427482  MEMB      135             0.0000000000
     15691       135  SLPC      H2S           -23.2568174064      -13.3822808054      -11.9064047998  MEMB      135             0.0000000000
     15692       135  SLPC      C3            -24.9939088387      -18.6359384856      -12.8536430603  MEMB      135             0.0000000000
     15693       135  SLPC      HX            -25.5318572395      -19.3951610099      -13.4606959874  MEMB      135             0.0000000000
     15694       135  SLPC      HY            -25.5341022111      -18.3701167962      -11.9199135771  MEMB      135             0.0000000000
     15695       135  SLPC      O31           -23.6619107205      -19.1009056631      -12.5740534773  MEMB      135             0.0000000000
     15696       135  SLPC      C31           -23.5976837911      -19.9110007574      -11.5200015192  MEMB      135             0.0000000000
     15697       135  SLPC      O32           -24.5255735685      -20.2197635119      -10.8083574955  MEMB      135             0.0000000000
     15698       135  SLPC      C32           -22.1153718691      -20.3688537117      -11.3445838217  MEMB      135             0.0000000000
     15699       135  SLPC      H2X           -21.9598747897      -21.1391388704      -12.1299515006  MEMB      135             0.0000000000
     15700       135  SLPC      H2Y           -21.8506612334      -20.8297056644      -10.3689480405  MEMB      135             0.0000000000
     15701       135  SLPC      C23           -24.1230310206      -14.3386415688      -10.1653643775  MEMB      135             0.0000000000
     15702       135  SLPC      H3R           -25.0971417626      -13.8082736342      -10.2296992261  MEMB      135             0.0000000000
     15703       135  SLPC      H3S           -23.5396594094      -13.6115248925       -9.5609636048  MEMB      135             0.0000000000
     15704       135  SLPC      C24           -24.2969208365      -15.7164250099       -9.3957479984  MEMB      135             0.0000000000
     15705       135  SLPC      H4R           -23.3369848007      -16.2745470202       -9.3590927771  MEMB      135             0.0000000000
     15706       135  SLPC      H4S           -25.0645711333      -16.3154833274       -9.9306900553  MEMB      135             0.0000000000
     15707       135  SLPC      C25           -24.8903434756      -15.5883611939       -7.9506388266  MEMB      135             0.0000000000
     15708       135  SLPC      H5R           -25.9161760256      -15.1836981347       -8.0856809604  MEMB      135             0.0000000000
     15709       135  SLPC      H5S           -24.3834260814      -14.8402785635       -7.3043198050  MEMB      135             0.0000000000
     15710       135  SLPC      C26           -24.9877834717      -16.9255044752       -7.0643429364  MEMB      135             0.0000000000
     15711       135  SLPC      H6R           -25.5195308675      -16.7620980371       -6.1026446438  MEMB      135             0.0000000000
     15712       135  SLPC      H6S           -23.9857077312      -17.3618601044       -6.8649463254  MEMB      135             0.0000000000
     15713       135  SLPC      C27           -25.8838657180      -17.9885870040       -7.6515684315  MEMB      135             0.0000000000
     15714       135  SLPC      H7R           -25.4064199814      -18.2252498485       -8.6264318086  MEMB      135             0.0000000000
     15715       135  SLPC      H7S           -26.9151046787      -17.6126830250       -7.8235076869  MEMB      135             0.0000000000
     15716       135  SLPC      C28           -25.8390740994      -19.4002082766       -6.8785995938  MEMB      135             0.0000000000
     15717       135  SLPC      H8R           -24.7697944989      -19.4428129386       -6.5800243344  MEMB      135             0.0000000000
     15718       135  SLPC      H8S           -26.0974507570      -20.1354349448       -7.6704359672  MEMB      135             0.0000000000
     15719       135  SLPC      C29           -26.7435513151      -19.3673477454       -5.7403060264  MEMB      135             0.0000000000
     15720       135  SLPC      H9R           -27.6810297941      -18.8265815651       -5.9370434063  MEMB      135             0.0000000000
     15721       135  SLPC      C210          -26.4616087720      -19.9170390490       -4.5644766631  MEMB      135             0.0000000000
     15722       135  SLPC      H10R          -27.2065836880      -19.8184335490       -3.7611776253  MEMB      135             0.0000000000
     15723       135  SLPC      C211          -25.2621500561      -20.6338179613       -4.1401819363  MEMB      135             0.0000000000
     15724       135  SLPC      H11R          -24.8845153154      -21.3110336167       -4.9358520297  MEMB      135             0.0000000000
     15725       135  SLPC      H11S          -25.5086008083      -21.3674244056       -3.3430591360  MEMB      135             0.0000000000
     15726       135  SLPC      C212          -24.0953604053      -19.8049559073       -3.6240286573  MEMB      135             0.0000000000
     15727       135  SLPC      H12R          -23.2627600709      -19.6371489229       -4.3230399862  MEMB      135             0.0000000000
     15728       135  SLPC      C213          -24.0422727352      -19.2841685382       -2.4309017509  MEMB      135             0.0000000000
     15729       135  SLPC      H13R          -23.1465397339      -18.7718980242       -2.0497961877  MEMB      135             0.0000000000
     15730       135  SLPC      C214          -25.0772212764      -19.5210532861       -1.4179240005  MEMB      135             0.0000000000
     15731       135  SLPC      H14R          -26.0232402224      -19.8303820794       -1.9115681929  MEMB      135             0.0000000000
     15732       135  SLPC      H14S          -25.1862993741      -18.6152566174       -0.7839242187  MEMB      135             0.0000000000
     15733       135  SLPC      C215          -24.5761876141      -20.4894074345       -0.2000637871  MEMB      135             0.0000000000
     15734       135  SLPC      H15R          -23.7017110683      -21.0883280845       -0.5330873677  MEMB      135             0.0000000000
     15735       135  SLPC      H15S          -25.4392262877      -21.1410602811        0.0545640142  MEMB      135             0.0000000000
     15736       135  SLPC      C216          -24.2623033423      -19.8976771919        1.2048826396  MEMB      135             0.0000000000
     15737       135  SLPC      H16R          -25.2310453036      -19.5959328317        1.6574430649  MEMB      135             0.0000000000
     15738       135  SLPC      H16S          -23.7248620588      -18.9648890022        0.9303192267  MEMB      135             0.0000000000
     15739       135  SLPC      C217          -23.3461080055      -20.7388275888        2.1643724534  MEMB      135             0.0000000000
     15740       135  SLPC      H17R          -23.2509518344      -20.2046883380        3.1338899564  MEMB      135             0.0000000000
     15741       135  SLPC      H17S          -22.2888933108      -20.7111723912        1.8240015344  MEMB      135             0.0000000000
     15742       135  SLPC      C218          -23.7590335042      -22.1127888177        2.5493121073  MEMB      135             0.0000000000
     15743       135  SLPC      H18R          -23.6882026451      -22.8776415032        1.7466263786  MEMB      135             0.0000000000
     15744       135  SLPC      H18S          -24.8128977996      -22.2794272263        2.8590241746  MEMB      135             0.0000000000
     15745       135  SLPC      H18T          -23.1386872983      -22.5434390728        3.3641926895  MEMB      135             0.0000000000
     15746       135  SLPC      C33           -21.1760548676      -19.2225809498      -11.7173823955  MEMB      135             0.0000000000
     15747       135  SLPC      H3X           -21.5084874411      -18.7140354434      -12.6475388343  MEMB      135             0.0000000000
     15748       135  SLPC      H3Y           -20.2005638634      -19.7137569382      -11.9210594459  MEMB      135             0.0000000000
     15749       135  SLPC      C34           -20.9992451341      -18.1812820400      -10.6718436059  MEMB      135             0.0000000000
     15750       135  SLPC      H4X           -20.7146412777      -18.7393812115       -9.7543216881  MEMB      135             0.0000000000
     15751       135  SLPC      H4Y           -21.9600213208      -17.6950207603      -10.3983839786  MEMB      135             0.0000000000
     15752       135  SLPC      C35           -19.8298161654      -17.3155813373      -10.9000554698  MEMB      135             0.0000000000
     15753       135  SLPC      H5X           -20.0632867699      -16.6575884981      -11.7642650020  MEMB      135             0.0000000000
     15754       135  SLPC      H5Y           -18.9012139905      -17.8461164702      -11.2009729139  MEMB      135             0.0000000000
     15755       135  SLPC      C36           -19.3558444251      -16.3950769808       -9.7943925170  MEMB      135             0.0000000000
     15756       135  SLPC      H6X           -18.5947683532      -15.6848856235      -10.1826092661  MEMB      135             0.0000000000
     15757       135  SLPC      H6Y           -18.8965701091      -16.9719074597       -8.9633362596  MEMB      135             0.0000000000
     15758       135  SLPC      C37           -20.5270773385      -15.6116537641       -9.1639573063  MEMB      135             0.0000000000
     15759       135  SLPC      H7X           -21.1687017994      -16.3522729942       -8.6403902912  MEMB      135             0.0000000000
     15760       135  SLPC      H7Y           -21.1110952834      -15.0343399489       -9.9122571078  MEMB      135             0.0000000000
     15761       135  SLPC      C38           -20.2008809244      -14.6201101863       -8.0360279027  MEMB      135             0.0000000000
     15762       135  SLPC      H8X           -19.4811759729      -13.8774123860       -8.4419161176  MEMB      135             0.0000000000
     15763       135  SLPC      H8Y           -19.6098069560      -15.1221336669       -7.2404621545  MEMB      135             0.0000000000
     15764       135  SLPC      C39           -21.3971592282      -13.9562257179       -7.4636057095  MEMB      135             0.0000000000
     15765       135  SLPC      H9X           -22.1263933640      -14.7369350141       -7.1585945930  MEMB      135             0.0000000000
     15766       135  SLPC      H9Y           -21.9345011420      -13.4262869830       -8.2789271969  MEMB      135             0.0000000000
     15767       135  SLPC      C310          -20.9990708650      -12.8945881880       -6.3415011618  MEMB      135             0.0000000000
     15768       135  SLPC      H10X          -21.9744444606      -12.5739140302       -5.9170774059  MEMB      135             0.0000000000
     15769       135  SLPC      H10Y          -20.3672506621      -12.0981477327       -6.7896152790  MEMB      135             0.0000000000
     15770       135  SLPC      C311          -20.2524553513      -13.4364643783       -5.1837810709  MEMB      135             0.0000000000
     15771       135  SLPC      H11X          -20.0726515266      -12.6913341774       -4.3795593980  MEMB      135             0.0000000000
     15772       135  SLPC      H11Y          -19.2837119301      -13.8729173940       -5.5083811418  MEMB      135             0.0000000000
     15773       135  SLPC      C312          -20.9544486857      -14.6412567141       -4.4632294620  MEMB      135             0.0000000000
     15774       135  SLPC      H12X          -20.1222299388      -15.0659697477       -3.8621043926  MEMB      135             0.0000000000
     15775       135  SLPC      H12Y          -21.2405845633      -15.3613161901       -5.2594462895  MEMB      135             0.0000000000
     15776       135  SLPC      C313          -22.1609090159      -14.2463784745       -3.6463869157  MEMB      135             0.0000000000
     15777       135  SLPC      H13X          -23.0607022172      -14.0781542458       -4.2759848039  MEMB      135             0.0000000000
     15778       135  SLPC      H13Y          -21.9953942060      -13.3970027592       -2.9496177300  MEMB      135             0.0000000000
     15779       135  SLPC      C314          -22.5781501616      -15.3270832078       -2.6307313978  MEMB      135             0.0000000000
     15780       135  SLPC      H14X          -21.6650519117      -15.5480199310       -2.0376382903  MEMB      135             0.0000000000
     15781       135  SLPC      H14Y          -22.7531269029      -16.3414566298       -3.0487632468  MEMB      135             0.0000000000
     15782       135  SLPC      C315          -23.7029999277      -14.9054840628       -1.6473592296  MEMB      135             0.0000000000
     15783       135  SLPC      H15X          -23.2559455704      -14.1273828914       -0.9923622205  MEMB      135             0.0000000000
     15784       135  SLPC      H15Y          -23.9897676988      -15.7719910752       -1.0139159422  MEMB      135             0.0000000000
     15785       135  SLPC      C316          -25.0647944219      -14.2569998298       -2.1551326847  MEMB      135             0.0000000000
     15786       135  SLPC      H16X          -24.6729217864      -13.2604743277       -2.4512651279  MEMB      135             0.0000000000
     15787       135  SLPC      H16Y          -25.5275758873      -14.1117518903       -1.1556042372  MEMB      135             0.0000000000
     15788       135  SLPC      C317          -25.9653383038      -14.9160554299       -3.2713457337  MEMB      135             0.0000000000
     15789       135  SLPC      H17X          -25.2671371442      -15.1407750730       -4.1058135179  MEMB      135             0.0000000000
     15790       135  SLPC      H17Y          -26.7811892530      -14.1832697153       -3.4494837010  MEMB      135             0.0000000000
     15791       135  SLPC      C318          -26.6549696514      -16.2009923686       -2.7850687162  MEMB      135             0.0000000000
     15792       135  SLPC      H18X          -25.8309300517      -16.9199256283       -2.5890717656  MEMB      135             0.0000000000
     15793       135  SLPC      H18Y          -27.3056422353      -16.5476663437       -3.6161907047  MEMB      135             0.0000000000
     15794       135  SLPC      H18Z          -27.2430364752      -16.0026953443       -1.8635608868  MEMB      135             0.0000000000
     15795       136  OSM       N              16.2783564632       19.8870421388      -21.7189664634  MEMB      136             0.0000000000
     15796       136  OSM       C15            16.2574919286       18.5058782652      -22.2790044740  MEMB      136             0.0000000000
     15797       136  OSM       H15A           15.7544438168       18.5194856060      -23.2345972103  MEMB      136             0.0000000000
     15798       136  OSM       H15B           15.6225932250       17.9937179398      -21.5711941382  MEMB      136             0.0000000000
     15799       136  OSM       H15C           17.2840120328       18.1800503825      -22.3595810215  MEMB      136             0.0000000000
     15800       136  OSM       C14            17.0594527278       20.7256033607      -22.6808398179  MEMB      136             0.0000000000
     15801       136  OSM       H14A           16.6969815479       20.6282781512      -23.6935304718  MEMB      136             0.0000000000
     15802       136  OSM       H14B           18.1089438564       20.4829389779      -22.6028510012  MEMB      136             0.0000000000
     15803       136  OSM       H14C           16.9476282388       21.7529349651      -22.3670160946  MEMB      136             0.0000000000
     15804       136  OSM       C13            14.9172693249       20.4737324806      -21.5662113671  MEMB      136             0.0000000000
     15805       136  OSM       H13A           14.9695652370       21.4258015606      -21.0590332762  MEMB      136             0.0000000000
     15806       136  OSM       H13B           14.2627074878       19.7850036938      -21.0527899615  MEMB      136             0.0000000000
     15807       136  OSM       H13C           14.5591450633       20.8078184037      -22.5287776879  MEMB      136             0.0000000000
     15808       136  OSM       C12            16.9228310416       19.9593937853      -20.3383177342  MEMB      136             0.0000000000
     15809       136  OSM       H12A           16.5106848218       19.1502063339      -19.7537229487  MEMB      136             0.0000000000
     15810       136  OSM       H12B           16.7549961060       20.9690781979      -19.9936889723  MEMB      136             0.0000000000
     15811       136  OSM       C11            18.4423896074       19.7854745621      -20.1132833500  MEMB      136             0.0000000000
     15812       136  OSM       H11A           18.6127171332       19.9350015330      -19.0256477114  MEMB      136             0.0000000000
     15813       136  OSM       H11B           19.0814177870       20.5435158628      -20.6146189162  MEMB      136             0.0000000000
     15814       136  OSM       P              20.2176418322       17.9336248421      -20.5079155900  MEMB      136             0.0000000000
     15815       136  OSM       O13            20.1339025291       16.4836160786      -20.7863154136  MEMB      136             0.0000000000
     15816       136  OSM       O14            21.2915062001       18.6270277591      -21.2968255185  MEMB      136             0.0000000000
     15817       136  OSM       O11            20.4575639354       18.1484556932      -18.9639626724  MEMB      136             0.0000000000
     15818       136  OSM       O12            18.7945624132       18.5180604314      -20.7483575954  MEMB      136             0.0000000000
     15819       136  OSM       C1S            19.4084495820       17.4546260729      -18.1752755274  MEMB      136             0.0000000000
     15820       136  OSM       H1S            19.1485837997       16.4233477089      -18.4966101230  MEMB      136             0.0000000000
     15821       136  OSM       H1T            18.4998387656       18.0921596647      -18.2232158799  MEMB      136             0.0000000000
     15822       136  OSM       NF             20.0707275970       18.6058091957      -16.2056474460  MEMB      136             0.0000000000
     15823       136  OSM       HNF            20.9830293536       18.9664902237      -16.0278169334  MEMB      136             0.0000000000
     15824       136  OSM       C2S            20.0514815031       17.2857599263      -16.7564279156  MEMB      136             0.0000000000
     15825       136  OSM       H2S            19.2931224179       16.6491515385      -16.2525009104  MEMB      136             0.0000000000
     15826       136  OSM       C3S            21.3937086521       16.6479052762      -16.7380882841  MEMB      136             0.0000000000
     15827       136  OSM       H3S            22.1548582295       17.4051974467      -17.0235369192  MEMB      136             0.0000000000
     15828       136  OSM       O3             21.4684329963       15.5566770716      -17.6201101060  MEMB      136             0.0000000000
     15829       136  OSM       HO3            20.6392640714       15.6585936830      -18.0930709524  MEMB      136             0.0000000000
     15830       136  OSM       C4S            21.7115346140       16.3608480900      -15.2703391758  MEMB      136             0.0000000000
     15831       136  OSM       H4S            22.1016778485       17.2215412383      -14.7073152077  MEMB      136             0.0000000000
     15832       136  OSM       C5S            21.6593265178       15.1577319419      -14.6919603038  MEMB      136             0.0000000000
     15833       136  OSM       H5S            21.2158952291       14.3509155551      -15.2939696798  MEMB      136             0.0000000000
     15834       136  OSM       C6S            21.9788462445       14.6579316344      -13.2531822751  MEMB      136             0.0000000000
     15835       136  OSM       H6S            22.5588166581       13.7129116017      -13.3231324230  MEMB      136             0.0000000000
     15836       136  OSM       H6T            21.0392184687       14.3652062845      -12.7376905441  MEMB      136             0.0000000000
     15837       136  OSM       C7S            22.6853050730       15.6600093210      -12.3189312216  MEMB      136             0.0000000000
     15838       136  OSM       H7S            23.0292091538       16.5362781804      -12.9090187602  MEMB      136             0.0000000000
     15839       136  OSM       H7T            23.5360821449       15.1077476613      -11.8656021015  MEMB      136             0.0000000000
     15840       136  OSM       C8S            21.8901687313       16.4105349438      -11.2765534200  MEMB      136             0.0000000000
     15841       136  OSM       H8S            20.9922004322       16.9287677034      -11.6758137689  MEMB      136             0.0000000000
     15842       136  OSM       H8T            22.6511751253       17.1500592373      -10.9474729059  MEMB      136             0.0000000000
     15843       136  OSM       C9S            21.4649117390       15.5380929206       -9.9827409037  MEMB      136             0.0000000000
     15844       136  OSM       H9S            22.4225130815       15.2762402768       -9.4839885813  MEMB      136             0.0000000000
     15845       136  OSM       H9T            20.7728213407       14.7269905248      -10.2949023149  MEMB      136             0.0000000000
     15846       136  OSM       C10S           20.8296531193       16.3238810267       -8.7986692646  MEMB      136             0.0000000000
     15847       136  OSM       H10S           19.8452038029       16.7190599531       -9.1288422410  MEMB      136             0.0000000000
     15848       136  OSM       H10T           21.4511011067       17.2419785793       -8.7264180166  MEMB      136             0.0000000000
     15849       136  OSM       C11S           20.7602511684       15.7461939817       -7.4724496792  MEMB      136             0.0000000000
     15850       136  OSM       H11S           21.7723420581       15.6966659407       -7.0168848083  MEMB      136             0.0000000000
     15851       136  OSM       H11T           20.3308083384       14.7222320536       -7.5098965760  MEMB      136             0.0000000000
     15852       136  OSM       C12S           19.7730002423       16.3831148076       -6.5313502031  MEMB      136             0.0000000000
     15853       136  OSM       H12S           18.8096572231       16.6543093631       -7.0137868360  MEMB      136             0.0000000000
     15854       136  OSM       H12T           20.1719067435       17.3806873860       -6.2484304499  MEMB      136             0.0000000000
     15855       136  OSM       C13S           19.5423186485       15.5711650919       -5.2603092978  MEMB      136             0.0000000000
     15856       136  OSM       H13S           20.4955835229       15.4255185648       -4.7085912801  MEMB      136             0.0000000000
     15857       136  OSM       H13T           19.0829251398       14.5956672940       -5.5280452821  MEMB      136             0.0000000000
     15858       136  OSM       C14S           18.5050706132       16.1870871788       -4.3309744123  MEMB      136             0.0000000000
     15859       136  OSM       H14S           17.9751391090       15.3945002784       -3.7606244858  MEMB      136             0.0000000000
     15860       136  OSM       H14T           17.7327704796       16.6391684805       -4.9893778740  MEMB      136             0.0000000000
     15861       136  OSM       C15S           18.9884677398       17.2984962866       -3.3768680034  MEMB      136             0.0000000000
     15862       136  OSM       H15S           18.0702233219       17.6598538608       -2.8664074845  MEMB      136             0.0000000000
     15863       136  OSM       H15T           19.4730056125       18.1040959556       -3.9689429836  MEMB      136             0.0000000000
     15864       136  OSM       C16S           19.9265421418       16.7544120219       -2.3550617563  MEMB      136             0.0000000000
     15865       136  OSM       H16S           20.8718358412       16.3638676717       -2.7889009980  MEMB      136             0.0000000000
     15866       136  OSM       H16T           19.3418862373       15.9950801983       -1.7930007149  MEMB      136             0.0000000000
     15867       136  OSM       C17S           20.3752807948       17.8314809908       -1.4036198527  MEMB      136             0.0000000000
     15868       136  OSM       H17S           20.8242248658       17.3326671850       -0.5182077589  MEMB      136             0.0000000000
     15869       136  OSM       H17T           19.4440194884       18.3520708144       -1.0936844967  MEMB      136             0.0000000000
     15870       136  OSM       C18S           21.4065546889       18.8655946011       -1.9876941761  MEMB      136             0.0000000000
     15871       136  OSM       H18S           21.6096771731       19.6982483381       -1.2807649373  MEMB      136             0.0000000000
     15872       136  OSM       H18T           20.9006690845       19.2278075163       -2.9081303859  MEMB      136             0.0000000000
     15873       136  OSM       H18U           22.3241596150       18.3796424649       -2.3828802806  MEMB      136             0.0000000000
     15874       136  OSM       C1F            18.9647139895       19.4297364226      -16.0986278868  MEMB      136             0.0000000000
     15875       136  OSM       OF             17.8211250178       19.0029079046      -16.0727673014  MEMB      136             0.0000000000
     15876       136  OSM       C2F            19.3160256290       20.8999049866      -15.9347799006  MEMB      136             0.0000000000
     15877       136  OSM       H2F            19.5245154318       21.2935452826      -16.9525721225  MEMB      136             0.0000000000
     15878       136  OSM       H2G            20.2925644787       20.9661800688      -15.4091373784  MEMB      136             0.0000000000
     15879       136  OSM       C3F            18.2547047240       21.8418004156      -15.3226814332  MEMB      136             0.0000000000
     15880       136  OSM       H3F            17.3316640706       21.7052720133      -15.9257380999  MEMB      136             0.0000000000
     15881       136  OSM       H3G            18.5198394149       22.9205161954      -15.3426042891  MEMB      136             0.0000000000
     15882       136  OSM       C4F            17.7515750467       21.4604074629      -13.9196647696  MEMB      136             0.0000000000
     15883       136  OSM       H4F            18.5161920780       21.7571180275      -13.1702351511  MEMB      136             0.0000000000
     15884       136  OSM       H4G            17.6478707617       20.3543162753      -13.9083124726  MEMB      136             0.0000000000
     15885       136  OSM       C5F            16.4115428917       22.1432107879      -13.6060162545  MEMB      136             0.0000000000
     15886       136  OSM       H5F            15.5489195415       21.7313397874      -14.1722002004  MEMB      136             0.0000000000
     15887       136  OSM       H5G            16.6455391186       23.1896226105      -13.8968583104  MEMB      136             0.0000000000
     15888       136  OSM       C6F            15.9432123927       22.0056049354      -12.1423689104  MEMB      136             0.0000000000
     15889       136  OSM       H6F            14.9052085356       22.3503995333      -11.9474684121  MEMB      136             0.0000000000
     15890       136  OSM       H6G            16.6808729962       22.6424338005      -11.6088644992  MEMB      136             0.0000000000
     15891       136  OSM       C7F            15.9763553363       20.5212618499      -11.7457365579  MEMB      136             0.0000000000
     15892       136  OSM       H7F            17.0295082744       20.2290015300      -11.5463026183  MEMB      136             0.0000000000
     15893       136  OSM       H7G            15.6074470288       19.9381247365      -12.6164707907  MEMB      136             0.0000000000
     15894       136  OSM       C8F            15.1656213078       20.3199007133      -10.4289822336  MEMB      136             0.0000000000
     15895       136  OSM       H8F            14.1374359415       20.7061664274      -10.5961751955  MEMB      136             0.0000000000
     15896       136  OSM       H8G            15.6502013725       21.0316813133       -9.7269337544  MEMB      136             0.0000000000
     15897       136  OSM       C9F            14.9648593008       18.9380797355       -9.9026106972  MEMB      136             0.0000000000
     15898       136  OSM       H9F            14.7060409570       18.0952239466      -10.5603389705  MEMB      136             0.0000000000
     15899       136  OSM       C10F           15.1390659767       18.6620036732       -8.5802114349  MEMB      136             0.0000000000
     15900       136  OSM       H10F           14.9993735606       17.6206487149       -8.2545329661  MEMB      136             0.0000000000
     15901       136  OSM       C11F           15.4628291519       19.6352854873       -7.5509875023  MEMB      136             0.0000000000
     15902       136  OSM       H11F           14.9863192249       19.2627035144       -6.6190849264  MEMB      136             0.0000000000
     15903       136  OSM       H11G           15.1048303094       20.6726944183       -7.7240212482  MEMB      136             0.0000000000
     15904       136  OSM       C12F           16.9763456981       19.7264778945       -7.4458000904  MEMB      136             0.0000000000
     15905       136  OSM       H12F           17.2911911532       19.8362959855       -8.5055797829  MEMB      136             0.0000000000
     15906       136  OSM       H12G           17.4110572975       18.8028071442       -7.0074180067  MEMB      136             0.0000000000
     15907       136  OSM       C13F           17.5167897267       20.9343625571       -6.5186921850  MEMB      136             0.0000000000
     15908       136  OSM       H13F           16.9253371643       21.8255765170       -6.8190957441  MEMB      136             0.0000000000
     15909       136  OSM       H13G           18.6030022075       21.1545853714       -6.5959274129  MEMB      136             0.0000000000
     15910       136  OSM       C14F           17.3188188275       20.6579876338       -5.0353252233  MEMB      136             0.0000000000
     15911       136  OSM       H14F           16.9439445251       19.6168788028       -4.9359128209  MEMB      136             0.0000000000
     15912       136  OSM       H14G           16.4989790137       21.3442875031       -4.7333729040  MEMB      136             0.0000000000
     15913       136  OSM       C15F           18.6169265555       20.6546715775       -4.2700578907  MEMB      136             0.0000000000
     15914       136  OSM       H15F           19.4210370058       20.1437751100       -4.8416461632  MEMB      136             0.0000000000
     15915       136  OSM       H15G           18.3974041308       20.0870626356       -3.3405680694  MEMB      136             0.0000000000
     15916       136  OSM       C16F           19.0327083973       22.0817987483       -3.8210507618  MEMB      136             0.0000000000
     15917       136  OSM       H16F           19.1664021512       22.7355205891       -4.7093620243  MEMB      136             0.0000000000
     15918       136  OSM       H16G           20.0953818669       21.9164882749       -3.5422699671  MEMB      136             0.0000000000
     15919       136  OSM       C17F           18.3433108830       22.5904172275       -2.6210656107  MEMB      136             0.0000000000
     15920       136  OSM       H17F           18.8354144504       22.0939481990       -1.7575425647  MEMB      136             0.0000000000
     15921       136  OSM       H17G           17.2700651815       22.3052418660       -2.6548291901  MEMB      136             0.0000000000
     15922       136  OSM       C18F           18.5533583807       24.0725698196       -2.4954771228  MEMB      136             0.0000000000
     15923       136  OSM       H18F           18.2225177522       24.4773225992       -1.5151503701  MEMB      136             0.0000000000
     15924       136  OSM       H18G           17.9554497920       24.6529688122       -3.2302987129  MEMB      136             0.0000000000
     15925       136  OSM       H18H           19.6456958314       24.2614586760       -2.5692373017  MEMB      136             0.0000000000
     15926       137  OSM       N             -24.8645496639       13.1805454272      -19.8842816195  MEMB      137             0.0000000000
     15927       137  OSM       C15           -25.3354485401       12.4928571061      -18.6580531456  MEMB      137             0.0000000000
     15928       137  OSM       H15A          -24.5269318266       12.4036764779      -17.9475973539  MEMB      137             0.0000000000
     15929       137  OSM       H15B          -25.7390274759       11.5325329931      -18.9431877737  MEMB      137             0.0000000000
     15930       137  OSM       H15C          -26.1870354494       12.9935326676      -18.2215631564  MEMB      137             0.0000000000
     15931       137  OSM       C14           -25.9639717454       13.4953234473      -20.8932335314  MEMB      137             0.0000000000
     15932       137  OSM       H14A          -26.3950892558       12.5459851748      -21.1748265843  MEMB      137             0.0000000000
     15933       137  OSM       H14B          -25.5814740393       13.9280866977      -21.8058185570  MEMB      137             0.0000000000
     15934       137  OSM       H14C          -26.6802164244       14.1774668484      -20.4595584625  MEMB      137             0.0000000000
     15935       137  OSM       C13           -24.2054062200       14.4500433805      -19.4549629183  MEMB      137             0.0000000000
     15936       137  OSM       H13A          -24.9977190324       15.0906935574      -19.0969020238  MEMB      137             0.0000000000
     15937       137  OSM       H13B          -23.7986715481       15.0134958219      -20.2816964331  MEMB      137             0.0000000000
     15938       137  OSM       H13C          -23.4330725717       14.2778284366      -18.7199508200  MEMB      137             0.0000000000
     15939       137  OSM       C12           -23.7837251379       12.3518187101      -20.5846261742  MEMB      137             0.0000000000
     15940       137  OSM       H12A          -24.1550672667       11.3377341426      -20.5728836140  MEMB      137             0.0000000000
     15941       137  OSM       H12B          -22.9132688631       12.4114965095      -19.9481166801  MEMB      137             0.0000000000
     15942       137  OSM       C11           -23.3417568474       12.5331407664      -22.0683885509  MEMB      137             0.0000000000
     15943       137  OSM       H11A          -24.2684303266       12.5740315675      -22.6798828309  MEMB      137             0.0000000000
     15944       137  OSM       H11B          -22.8052169447       11.5985375670      -22.3385045128  MEMB      137             0.0000000000
     15945       137  OSM       P             -21.0029945045       13.7001892401      -21.9571044311  MEMB      137             0.0000000000
     15946       137  OSM       O13           -20.3239979828       12.4360295009      -22.4372504702  MEMB      137             0.0000000000
     15947       137  OSM       O14           -20.4313988787       14.9754073366      -22.4055273566  MEMB      137             0.0000000000
     15948       137  OSM       O11           -21.0446736236       13.6914159097      -20.3677214404  MEMB      137             0.0000000000
     15949       137  OSM       O12           -22.5599623625       13.6946892852      -22.2888503956  MEMB      137             0.0000000000
     15950       137  OSM       C1S           -19.8329187964       13.3308786064      -19.6932878697  MEMB      137             0.0000000000
     15951       137  OSM       H1S           -19.0491089473       14.0433821160      -20.0284029203  MEMB      137             0.0000000000
     15952       137  OSM       H1T           -19.5418995330       12.3085241035      -20.0164290414  MEMB      137             0.0000000000
     15953       137  OSM       NF            -21.1510817629       12.4222267943      -17.8567284780  MEMB      137             0.0000000000
     15954       137  OSM       HNF           -21.9824079933       12.8998168403      -17.5832081045  MEMB      137             0.0000000000
     15955       137  OSM       C2S           -20.0189861636       13.2364332191      -18.2093872753  MEMB      137             0.0000000000
     15956       137  OSM       H2S           -19.0715957202       12.7905994558      -17.8378975965  MEMB      137             0.0000000000
     15957       137  OSM       C3S           -20.1728800061       14.6834501671      -17.6812605342  MEMB      137             0.0000000000
     15958       137  OSM       H3S           -21.0481253748       15.1162921210      -18.2112742214  MEMB      137             0.0000000000
     15959       137  OSM       O3            -18.9050022216       15.4259384121      -17.8914338362  MEMB      137             0.0000000000
     15960       137  OSM       HO3           -18.6073867951       15.1511057682      -18.7617739925  MEMB      137             0.0000000000
     15961       137  OSM       C4S           -20.3836559679       14.6126639745      -16.2494826572  MEMB      137             0.0000000000
     15962       137  OSM       H4S           -19.5715164300       14.0631234902      -15.7510498536  MEMB      137             0.0000000000
     15963       137  OSM       C5S           -21.4648198214       15.1541256767      -15.7070645037  MEMB      137             0.0000000000
     15964       137  OSM       H5S           -22.1469668016       15.8110943092      -16.2665889399  MEMB      137             0.0000000000
     15965       137  OSM       C6S           -21.6740389036       15.0807309977      -14.2490074848  MEMB      137             0.0000000000
     15966       137  OSM       H6S           -21.3667322696       16.0509549618      -13.8034188903  MEMB      137             0.0000000000
     15967       137  OSM       H6T           -21.1523275969       14.2922017244      -13.6656035325  MEMB      137             0.0000000000
     15968       137  OSM       C7S           -23.1163624189       14.8472710241      -13.8533843058  MEMB      137             0.0000000000
     15969       137  OSM       H7S           -23.2418295714       13.7539839927      -13.7007324233  MEMB      137             0.0000000000
     15970       137  OSM       H7T           -23.8870713846       15.1107211792      -14.6089787560  MEMB      137             0.0000000000
     15971       137  OSM       C8S           -23.4939003839       15.4550062562      -12.4901324018  MEMB      137             0.0000000000
     15972       137  OSM       H8S           -24.5819378897       15.2799686719      -12.3492157350  MEMB      137             0.0000000000
     15973       137  OSM       H8T           -23.2977608639       16.5438324819      -12.3886046084  MEMB      137             0.0000000000
     15974       137  OSM       C9S           -22.7772909909       14.7668604506      -11.3115008863  MEMB      137             0.0000000000
     15975       137  OSM       H9S           -21.7473485099       15.1430622409      -11.1325826848  MEMB      137             0.0000000000
     15976       137  OSM       H9T           -22.6804307317       13.6877979674      -11.5575970293  MEMB      137             0.0000000000
     15977       137  OSM       C10S          -23.5773208442       14.8766592872       -9.9535039808  MEMB      137             0.0000000000
     15978       137  OSM       H10S          -24.6572326032       14.6287494579       -9.8719430468  MEMB      137             0.0000000000
     15979       137  OSM       H10T          -23.5786255910       15.9788643742       -9.8139937347  MEMB      137             0.0000000000
     15980       137  OSM       C11S          -22.9308853494       14.1317166213       -8.7038228592  MEMB      137             0.0000000000
     15981       137  OSM       H11S          -21.9432314840       14.6174904640       -8.5525469908  MEMB      137             0.0000000000
     15982       137  OSM       H11T          -22.7069904006       13.0972598046       -9.0415971850  MEMB      137             0.0000000000
     15983       137  OSM       C12S          -23.7966833311       14.2712187992       -7.4194049291  MEMB      137             0.0000000000
     15984       137  OSM       H12S          -24.5349214882       13.4489230224       -7.3047088728  MEMB      137             0.0000000000
     15985       137  OSM       H12T          -24.4053575663       15.2002500101       -7.3922432646  MEMB      137             0.0000000000
     15986       137  OSM       C13S          -22.9523274448       14.3331625389       -6.1044075890  MEMB      137             0.0000000000
     15987       137  OSM       H13S          -22.0471013512       13.6890473346       -6.1059427130  MEMB      137             0.0000000000
     15988       137  OSM       H13T          -23.6963983340       14.0776600343       -5.3199345715  MEMB      137             0.0000000000
     15989       137  OSM       C14S          -22.4095240258       15.7478754660       -5.9778052591  MEMB      137             0.0000000000
     15990       137  OSM       H14S          -23.1596748112       16.5668350754       -5.9478086136  MEMB      137             0.0000000000
     15991       137  OSM       H14T          -21.8793283821       16.1446317920       -6.8698806589  MEMB      137             0.0000000000
     15992       137  OSM       C15S          -21.5077106324       15.9714479590       -4.7376966809  MEMB      137             0.0000000000
     15993       137  OSM       H15S          -21.2847094022       17.0533951123       -4.6194516578  MEMB      137             0.0000000000
     15994       137  OSM       H15T          -20.5867784067       15.4304374914       -5.0434934017  MEMB      137             0.0000000000
     15995       137  OSM       C16S          -22.0022482656       15.4498256951       -3.3854808257  MEMB      137             0.0000000000
     15996       137  OSM       H16S          -21.2294103818       15.6581431753       -2.6149962123  MEMB      137             0.0000000000
     15997       137  OSM       H16T          -22.2758142811       14.3788057813       -3.4968310821  MEMB      137             0.0000000000
     15998       137  OSM       C17S          -23.3276429977       16.1204688049       -2.9105499098  MEMB      137             0.0000000000
     15999       137  OSM       H17S          -23.7673296380       15.5463214352       -2.0671329651  MEMB      137             0.0000000000
     16000       137  OSM       H17T          -24.1234588831       16.0269004909       -3.6801228628  MEMB      137             0.0000000000
     16001       137  OSM       C18S          -23.2737657465       17.4876587099       -2.2659949743  MEMB      137             0.0000000000
     16002       137  OSM       H18S          -24.2988164227       17.6807433830       -1.8834898515  MEMB      137             0.0000000000
     16003       137  OSM       H18T          -22.9829505467       18.2151908744       -3.0536765407  MEMB      137             0.0000000000
     16004       137  OSM       H18U          -22.5225297518       17.5644337983       -1.4510885716  MEMB      137             0.0000000000
     16005       137  OSM       C1F           -21.0111739491       11.0771678670      -18.0381189800  MEMB      137             0.0000000000
     16006       137  OSM       OF            -20.0407849338       10.5457061153      -18.6319534749  MEMB      137             0.0000000000
     16007       137  OSM       C2F           -22.1398733864       10.2543801425      -17.5542977709  MEMB      137             0.0000000000
     16008       137  OSM       H2F           -22.6172281748        9.6784384401      -18.3757261072  MEMB      137             0.0000000000
     16009       137  OSM       H2G           -22.8025550905       11.0145484606      -17.0881239726  MEMB      137             0.0000000000
     16010       137  OSM       C3F           -21.7234693384        9.2636221666      -16.5049735246  MEMB      137             0.0000000000
     16011       137  OSM       H3F           -20.7410482837        9.6005948964      -16.1104870671  MEMB      137             0.0000000000
     16012       137  OSM       H3G           -21.5092937968        8.2463686032      -16.8969492463  MEMB      137             0.0000000000
     16013       137  OSM       C4F           -22.7353367173        8.9524112477      -15.3902316384  MEMB      137             0.0000000000
     16014       137  OSM       H4F           -22.8436982032        7.8889904276      -15.0873874268  MEMB      137             0.0000000000
     16015       137  OSM       H4G           -23.7297484738        9.2748640033      -15.7663839051  MEMB      137             0.0000000000
     16016       137  OSM       C5F           -22.5197787264        9.7843958694      -14.1029946024  MEMB      137             0.0000000000
     16017       137  OSM       H5F           -23.4870815033        9.7804282960      -13.5565232404  MEMB      137             0.0000000000
     16018       137  OSM       H5G           -22.1958132051       10.8156269924      -14.3597620755  MEMB      137             0.0000000000
     16019       137  OSM       C6F           -21.4241854162        9.1678324952      -13.2121367905  MEMB      137             0.0000000000
     16020       137  OSM       H6F           -20.4802104767        9.2704024681      -13.7889482984  MEMB      137             0.0000000000
     16021       137  OSM       H6G           -21.6274667266        8.0820059119      -13.0939047432  MEMB      137             0.0000000000
     16022       137  OSM       C7F           -21.0095234650        9.9465985378      -11.8979919105  MEMB      137             0.0000000000
     16023       137  OSM       H7F           -20.5907334897       10.9279101375      -12.2077729928  MEMB      137             0.0000000000
     16024       137  OSM       H7G           -20.1934420314        9.2954522942      -11.5180700649  MEMB      137             0.0000000000
     16025       137  OSM       C8F           -22.2179912250       10.1667014720      -11.0391802966  MEMB      137             0.0000000000
     16026       137  OSM       H8F           -22.6794587289       11.0492531806      -11.5315935058  MEMB      137             0.0000000000
     16027       137  OSM       H8G           -21.7792436161       10.6832331389      -10.1588302654  MEMB      137             0.0000000000
     16028       137  OSM       C9F           -23.1933337405        9.0620424794      -10.6471125209  MEMB      137             0.0000000000
     16029       137  OSM       H9F           -24.0123657693        8.7119104191      -11.2925532968  MEMB      137             0.0000000000
     16030       137  OSM       C10F          -23.1379089026        8.2972375990       -9.5348171533  MEMB      137             0.0000000000
     16031       137  OSM       H10F          -24.0325281889        7.6857990584       -9.3456113115  MEMB      137             0.0000000000
     16032       137  OSM       C11F          -22.0875592693        8.4457556989       -8.4613326154  MEMB      137             0.0000000000
     16033       137  OSM       H11F          -21.3881871842        9.2483231796       -8.7792707653  MEMB      137             0.0000000000
     16034       137  OSM       H11G          -21.4870535266        7.5206107382       -8.3278395913  MEMB      137             0.0000000000
     16035       137  OSM       C12F          -22.7433611376        8.7715659729       -7.0620787972  MEMB      137             0.0000000000
     16036       137  OSM       H12F          -21.9392430950        8.9502631565       -6.3165702459  MEMB      137             0.0000000000
     16037       137  OSM       H12G          -23.2913254436        7.8891117815       -6.6679587635  MEMB      137             0.0000000000
     16038       137  OSM       C13F          -23.7020706784        9.9777050636       -7.0632550311  MEMB      137             0.0000000000
     16039       137  OSM       H13F          -24.7562439443        9.7869968024       -7.3576535759  MEMB      137             0.0000000000
     16040       137  OSM       H13G          -23.3882956545       10.8175464578       -7.7194052292  MEMB      137             0.0000000000
     16041       137  OSM       C14F          -23.8506395072       10.5488671576       -5.6141042572  MEMB      137             0.0000000000
     16042       137  OSM       H14F          -24.6964307079       11.2665270973       -5.6767336873  MEMB      137             0.0000000000
     16043       137  OSM       H14G          -22.9612450416       11.1957617721       -5.4565418925  MEMB      137             0.0000000000
     16044       137  OSM       C15F          -23.8897452493        9.5075707106       -4.4484805453  MEMB      137             0.0000000000
     16045       137  OSM       H15F          -22.9028220226        8.9980570220       -4.4749272420  MEMB      137             0.0000000000
     16046       137  OSM       H15G          -24.6671154406        8.7748490597       -4.7536611290  MEMB      137             0.0000000000
     16047       137  OSM       C16F          -24.1578146008       10.0953292794       -3.0391777788  MEMB      137             0.0000000000
     16048       137  OSM       H16F          -24.0892993880        9.3316905248       -2.2351360831  MEMB      137             0.0000000000
     16049       137  OSM       H16G          -25.2320708079       10.3243073734       -2.8722528732  MEMB      137             0.0000000000
     16050       137  OSM       C17F          -23.4325850507       11.3568173007       -2.6073416263  MEMB      137             0.0000000000
     16051       137  OSM       H17F          -23.9398012254       11.7465465899       -1.6989565015  MEMB      137             0.0000000000
     16052       137  OSM       H17G          -23.5187234730       12.1904464766       -3.3367001421  MEMB      137             0.0000000000
     16053       137  OSM       C18F          -21.9346847583       11.0127526925       -2.2241719494  MEMB      137             0.0000000000
     16054       137  OSM       H18F          -21.4200722933       10.2028656539       -2.7841518070  MEMB      137             0.0000000000
     16055       137  OSM       H18G          -21.8781154751       10.6740137032       -1.1675843955  MEMB      137             0.0000000000
     16056       137  OSM       H18H          -21.3651183994       11.9540952787       -2.3784095760  MEMB      137             0.0000000000
     16057       138  SAPS      N             -15.6148485114       20.5144932432      -20.0743979144  MEMB      138             0.0000000000
     16058       138  SAPS      HN1           -14.9229648866       21.2359614823      -20.3614184324  MEMB      138             0.0000000000
     16059       138  SAPS      HN2           -15.7636240711       20.5117816834      -19.0450979253  MEMB      138             0.0000000000
     16060       138  SAPS      HN3           -15.4103626118       19.5435251267      -20.3858566660  MEMB      138             0.0000000000
     16061       138  SAPS      C12           -16.9077548259       20.9146632957      -20.7422668776  MEMB      138             0.0000000000
     16062       138  SAPS      H12A          -17.0994984876       21.9071105179      -20.3618947187  MEMB      138             0.0000000000
     16063       138  SAPS      C13           -16.7396801406       20.8488158341      -22.2802812224  MEMB      138             0.0000000000
     16064       138  SAPS      O13A          -15.7652178227       20.2782141911      -22.7957684176  MEMB      138             0.0000000000
     16065       138  SAPS      O13B          -17.5587833780       21.4603017260      -22.9905581612  MEMB      138             0.0000000000
     16066       138  SAPS      C11           -18.1203796830       20.0581403637      -20.2113418079  MEMB      138             0.0000000000
     16067       138  SAPS      H11A          -17.9884696177       19.0624259114      -20.6861823456  MEMB      138             0.0000000000
     16068       138  SAPS      H11B          -18.9339940045       20.6571507546      -20.6734449246  MEMB      138             0.0000000000
     16069       138  SAPS      P             -19.0957245968       18.7889123007      -18.2048655411  MEMB      138             0.0000000000
     16070       138  SAPS      O13           -19.8327806904       19.3270101845      -17.0252738284  MEMB      138             0.0000000000
     16071       138  SAPS      O14           -19.8959905748       18.1695549186      -19.3269111132  MEMB      138             0.0000000000
     16072       138  SAPS      O12           -18.0949635090       19.9649821937      -18.7533994484  MEMB      138             0.0000000000
     16073       138  SAPS      O11           -18.0977881715       17.6677197338      -17.5949356759  MEMB      138             0.0000000000
     16074       138  SAPS      C1            -16.7190602697       17.8313569393      -17.6200155104  MEMB      138             0.0000000000
     16075       138  SAPS      HA            -16.2828001234       17.6941861020      -18.6325283578  MEMB      138             0.0000000000
     16076       138  SAPS      HB            -16.5642575413       18.8531497855      -17.2122207900  MEMB      138             0.0000000000
     16077       138  SAPS      C2            -15.9888150829       16.8407687895      -16.6402371001  MEMB      138             0.0000000000
     16078       138  SAPS      HS            -15.9800245780       15.8068110875      -17.0466548533  MEMB      138             0.0000000000
     16079       138  SAPS      O21           -16.5837322380       16.6762214690      -15.3792472938  MEMB      138             0.0000000000
     16080       138  SAPS      C21           -17.7855272507       16.0364574427      -15.2393881418  MEMB      138             0.0000000000
     16081       138  SAPS      O22           -18.2015064127       15.1641857788      -15.9790254258  MEMB      138             0.0000000000
     16082       138  SAPS      C22           -18.5025224438       16.4660341209      -13.9569757710  MEMB      138             0.0000000000
     16083       138  SAPS      H2R           -19.5679367527       16.5469946764      -14.2613746216  MEMB      138             0.0000000000
     16084       138  SAPS      H2S           -18.5973139026       15.6282370833      -13.2334900079  MEMB      138             0.0000000000
     16085       138  SAPS      C3            -14.5649801295       17.3437994682      -16.4819323728  MEMB      138             0.0000000000
     16086       138  SAPS      HX            -14.1460225793       17.5806764056      -17.4832737831  MEMB      138             0.0000000000
     16087       138  SAPS      HY            -13.9897699148       16.5467288104      -15.9641167508  MEMB      138             0.0000000000
     16088       138  SAPS      O31           -14.5677606531       18.4853947232      -15.5676933809  MEMB      138             0.0000000000
     16089       138  SAPS      C31           -14.2719453457       19.7344456698      -16.0073473072  MEMB      138             0.0000000000
     16090       138  SAPS      O32           -13.5962834633       19.9601245899      -16.9936546013  MEMB      138             0.0000000000
     16091       138  SAPS      C32           -14.9496964226       20.7031869854      -15.0682065882  MEMB      138             0.0000000000
     16092       138  SAPS      H2X           -14.3670492864       21.6460203437      -15.1450752994  MEMB      138             0.0000000000
     16093       138  SAPS      H2Y           -14.8973613666       20.4089781403      -13.9981490992  MEMB      138             0.0000000000
     16094       138  SAPS      C23           -17.8889412762       17.7089676463      -13.2110075404  MEMB      138             0.0000000000
     16095       138  SAPS      H3R           -17.5301424423       18.4371860485      -13.9694812317  MEMB      138             0.0000000000
     16096       138  SAPS      H3S           -17.0959177497       17.2144469019      -12.6102713616  MEMB      138             0.0000000000
     16097       138  SAPS      C24           -18.8906631855       18.4233458394      -12.3296985150  MEMB      138             0.0000000000
     16098       138  SAPS      H4R           -19.6299551481       17.6802729984      -11.9614439711  MEMB      138             0.0000000000
     16099       138  SAPS      H4S           -19.3911957590       19.2268234006      -12.9112585796  MEMB      138             0.0000000000
     16100       138  SAPS      C25           -18.1151084877       19.0576149603      -11.1903481845  MEMB      138             0.0000000000
     16101       138  SAPS      H5R           -17.4161174693       19.8842150975      -11.3856514090  MEMB      138             0.0000000000
     16102       138  SAPS      C26           -18.2358496553       18.8209364471       -9.8847501325  MEMB      138             0.0000000000
     16103       138  SAPS      H6R           -17.6229166446       19.4561865797       -9.2284192336  MEMB      138             0.0000000000
     16104       138  SAPS      C27           -19.1410694265       17.7734066799       -9.2903341590  MEMB      138             0.0000000000
     16105       138  SAPS      H7R           -19.8970236927       17.4815537635      -10.0503834082  MEMB      138             0.0000000000
     16106       138  SAPS      H7S           -19.8343074849       18.1307688013       -8.4991101861  MEMB      138             0.0000000000
     16107       138  SAPS      C28           -18.2486655607       16.6572686641       -8.8188853667  MEMB      138             0.0000000000
     16108       138  SAPS      H8R           -17.5562947512       16.3136953928       -9.6015602977  MEMB      138             0.0000000000
     16109       138  SAPS      C29           -18.1128142357       16.1284019951       -7.5484049904  MEMB      138             0.0000000000
     16110       138  SAPS      H9R           -17.4026610656       15.3149428711       -7.3387233341  MEMB      138             0.0000000000
     16111       138  SAPS      C210          -18.8888373082       16.5307259458       -6.3395408589  MEMB      138             0.0000000000
     16112       138  SAPS      H10R          -19.4387229034       17.4679588613       -6.5709306630  MEMB      138             0.0000000000
     16113       138  SAPS      H10S          -18.1974330962       16.6719213337       -5.4814350863  MEMB      138             0.0000000000
     16114       138  SAPS      C211          -19.9957458179       15.5436534053       -5.9468944165  MEMB      138             0.0000000000
     16115       138  SAPS      H11R          -20.7469492313       15.2540591079       -6.6964468170  MEMB      138             0.0000000000
     16116       138  SAPS      C212          -20.1047218054       14.8183760427       -4.7828396338  MEMB      138             0.0000000000
     16117       138  SAPS      H12R          -20.9391852391       14.1041604260       -4.8425620248  MEMB      138             0.0000000000
     16118       138  SAPS      C213          -19.2993335979       14.6259565007       -3.5116531011  MEMB      138             0.0000000000
     16119       138  SAPS      H13R          -20.0076923888       14.7673160146       -2.6675177043  MEMB      138             0.0000000000
     16120       138  SAPS      H13S          -18.4209104517       15.3057189306       -3.5364858239  MEMB      138             0.0000000000
     16121       138  SAPS      C214          -18.8325814812       13.1560989613       -3.3544620942  MEMB      138             0.0000000000
     16122       138  SAPS      H14R          -19.5540360843       12.3401691622       -3.5086099554  MEMB      138             0.0000000000
     16123       138  SAPS      C215          -17.6066763162       12.7274983397       -2.9538047498  MEMB      138             0.0000000000
     16124       138  SAPS      H15R          -17.4292540602       11.6458151350       -3.0459063012  MEMB      138             0.0000000000
     16125       138  SAPS      C216          -16.3760835077       13.5012716665       -2.5510393770  MEMB      138             0.0000000000
     16126       138  SAPS      H16R          -16.3951326808       14.3535477763       -3.2634880020  MEMB      138             0.0000000000
     16127       138  SAPS      H16S          -15.4722348109       12.9215104739       -2.8360933040  MEMB      138             0.0000000000
     16128       138  SAPS      C217          -16.2023417409       13.7696244436       -1.0493752090  MEMB      138             0.0000000000
     16129       138  SAPS      H17R          -17.0842825172       14.3097734268       -0.6434920068  MEMB      138             0.0000000000
     16130       138  SAPS      H17S          -15.3117702995       14.4338224412       -1.0427116230  MEMB      138             0.0000000000
     16131       138  SAPS      C218          -15.8084350906       12.5363755005       -0.2423221059  MEMB      138             0.0000000000
     16132       138  SAPS      H18R          -15.0908990696       11.8743761495       -0.7726238031  MEMB      138             0.0000000000
     16133       138  SAPS      H18S          -16.6585523370       11.8339557217       -0.1073111849  MEMB      138             0.0000000000
     16134       138  SAPS      C219          -15.1567887466       12.9561852192        1.0986005138  MEMB      138             0.0000000000
     16135       138  SAPS      H19R          -15.8594378576       13.4023484863        1.8344967485  MEMB      138             0.0000000000
     16136       138  SAPS      H19S          -14.6592228061       13.9153703302        0.8403115011  MEMB      138             0.0000000000
     16137       138  SAPS      C220          -14.3173500560       11.8163801116        1.7509030279  MEMB      138             0.0000000000
     16138       138  SAPS      H20R          -13.5477730159       11.4327740808        1.0473995250  MEMB      138             0.0000000000
     16139       138  SAPS      H20S          -15.0367529810       11.0070671074        1.9994877743  MEMB      138             0.0000000000
     16140       138  SAPS      H20T          -13.8410825542       12.1501775887        2.6975137374  MEMB      138             0.0000000000
     16141       138  SAPS      C33           -16.2894439468       20.9622089932      -15.6559926376  MEMB      138             0.0000000000
     16142       138  SAPS      H3X           -16.8854018500       20.0337727287      -15.5249924268  MEMB      138             0.0000000000
     16143       138  SAPS      H3Y           -16.3009251754       21.0205015139      -16.7654028327  MEMB      138             0.0000000000
     16144       138  SAPS      C34           -17.1137089081       22.0898997037      -15.0617568896  MEMB      138             0.0000000000
     16145       138  SAPS      H4X           -18.0302237557       22.3171071813      -15.6471612349  MEMB      138             0.0000000000
     16146       138  SAPS      H4Y           -16.4846995955       22.9855978959      -15.2525252386  MEMB      138             0.0000000000
     16147       138  SAPS      C35           -17.3488419679       21.8824165750      -13.5635616708  MEMB      138             0.0000000000
     16148       138  SAPS      H5X           -16.4720952309       21.5409909509      -12.9727446093  MEMB      138             0.0000000000
     16149       138  SAPS      H5Y           -18.0411544920       21.0135988659      -13.5769787880  MEMB      138             0.0000000000
     16150       138  SAPS      C36           -17.9175173531       23.1884379429      -13.0284848660  MEMB      138             0.0000000000
     16151       138  SAPS      H6X           -18.6752699570       23.4604154717      -13.7940955696  MEMB      138             0.0000000000
     16152       138  SAPS      H6Y           -17.2805323280       24.0903320846      -12.9053671064  MEMB      138             0.0000000000
     16153       138  SAPS      C37           -18.8414950760       23.1085366296      -11.7475681254  MEMB      138             0.0000000000
     16154       138  SAPS      H7X           -19.5268927534       22.2583858918      -11.9520063789  MEMB      138             0.0000000000
     16155       138  SAPS      H7Y           -19.4773429255       24.0151562726      -11.6577931637  MEMB      138             0.0000000000
     16156       138  SAPS      C38           -18.0900232030       22.9432929531      -10.4154573010  MEMB      138             0.0000000000
     16157       138  SAPS      H8X           -17.4853389296       23.8337056166      -10.1400610890  MEMB      138             0.0000000000
     16158       138  SAPS      H8Y           -17.3105985682       22.1606327072      -10.5348767407  MEMB      138             0.0000000000
     16159       138  SAPS      C39           -19.1068459339       22.5284765879       -9.3369959174  MEMB      138             0.0000000000
     16160       138  SAPS      H9X           -19.7500942160       21.6874876982       -9.6735826223  MEMB      138             0.0000000000
     16161       138  SAPS      H9Y           -19.7997166215       23.3640893548       -9.1003478242  MEMB      138             0.0000000000
     16162       138  SAPS      C310          -18.4573081391       22.2858873001       -7.9769632726  MEMB      138             0.0000000000
     16163       138  SAPS      H10X          -17.7583116401       23.1346305422       -7.8177151375  MEMB      138             0.0000000000
     16164       138  SAPS      H10Y          -18.0016874323       21.2728255359       -7.9560675623  MEMB      138             0.0000000000
     16165       138  SAPS      C311          -19.4769347069       22.0496602632       -6.8528484398  MEMB      138             0.0000000000
     16166       138  SAPS      H11X          -20.3515891290       22.7229721620       -6.9791514071  MEMB      138             0.0000000000
     16167       138  SAPS      H11Y          -18.9115355133       22.2371660664       -5.9150394882  MEMB      138             0.0000000000
     16168       138  SAPS      C312          -19.9087985861       20.5702078664       -6.9308791717  MEMB      138             0.0000000000
     16169       138  SAPS      H12X          -18.9570241229       20.0280852037       -6.7450044612  MEMB      138             0.0000000000
     16170       138  SAPS      H12Y          -20.1655462727       20.3310484887       -7.9850154744  MEMB      138             0.0000000000
     16171       138  SAPS      C313          -21.0664029737       20.1818933146       -6.0002192548  MEMB      138             0.0000000000
     16172       138  SAPS      H13X          -21.5987008327       19.2129279919       -6.1101566073  MEMB      138             0.0000000000
     16173       138  SAPS      H13Y          -21.8644226385       20.9417770934       -6.1418599418  MEMB      138             0.0000000000
     16174       138  SAPS      C314          -20.6652707541       20.2612848558       -4.5054238978  MEMB      138             0.0000000000
     16175       138  SAPS      H14X          -21.6214597310       20.2382821886       -3.9401862982  MEMB      138             0.0000000000
     16176       138  SAPS      H14Y          -20.0795465785       21.1617695084       -4.2219180929  MEMB      138             0.0000000000
     16177       138  SAPS      C315          -19.6904815717       19.1328588282       -4.1446685341  MEMB      138             0.0000000000
     16178       138  SAPS      H15X          -18.8274545822       19.2774395969       -4.8292140348  MEMB      138             0.0000000000
     16179       138  SAPS      H15Y          -20.1693294363       18.1309081447       -4.1781444684  MEMB      138             0.0000000000
     16180       138  SAPS      C316          -19.2957032281       19.2684625240       -2.6577360972  MEMB      138             0.0000000000
     16181       138  SAPS      H16X          -18.8521918153       20.2801232944       -2.5387360817  MEMB      138             0.0000000000
     16182       138  SAPS      H16Y          -18.5987071245       18.4598789216       -2.3499865973  MEMB      138             0.0000000000
     16183       138  SAPS      C317          -20.4960237960       19.1821122603       -1.6184143466  MEMB      138             0.0000000000
     16184       138  SAPS      H17X          -21.0046005675       20.1681325399       -1.5598081184  MEMB      138             0.0000000000
     16185       138  SAPS      H17Y          -20.0808519928       19.0280707258       -0.5994812703  MEMB      138             0.0000000000
     16186       138  SAPS      C318          -21.5269878121       17.9919175145       -1.7942332623  MEMB      138             0.0000000000
     16187       138  SAPS      H18X          -22.2816406937       18.2580809714       -2.5649332378  MEMB      138             0.0000000000
     16188       138  SAPS      H18Y          -22.1297314721       17.9222546778       -0.8635516927  MEMB      138             0.0000000000
     16189       138  SAPS      H18Z          -21.0657266884       17.0631461553       -2.1929098366  MEMB      138             0.0000000000
     16190       139  CHL1      C3             22.8962763447      -15.2446036603      -17.3690150000  MEMB      139             0.0000000000
     16191       139  CHL1      H3             23.5778816056      -16.1082656113      -17.2145850000  MEMB      139             0.0000000000
     16192       139  CHL1      O3             22.2746090553      -15.3034537397      -18.6309850000  MEMB      139             0.0000000000
     16193       139  CHL1      H3'            21.8983808985      -16.1803372504      -18.7365150000  MEMB      139             0.0000000000
     16194       139  CHL1      C4             21.8585994918      -15.2886247962      -16.2773250000  MEMB      139             0.0000000000
     16195       139  CHL1      H4A            21.0937144395      -14.4854747594      -16.3423350000  MEMB      139             0.0000000000
     16196       139  CHL1      H4B            21.2561738965      -16.1872673346      -16.5300350000  MEMB      139             0.0000000000
     16197       139  CHL1      C5             22.4668272789      -15.3686098186      -14.8867650000  MEMB      139             0.0000000000
     16198       139  CHL1      C6             22.1725281469      -16.3774875936      -14.0989850000  MEMB      139             0.0000000000
     16199       139  CHL1      H6             21.4771586997      -17.1463698294      -14.4667750000  MEMB      139             0.0000000000
     16200       139  CHL1      C7             22.6211150484      -16.4473736769      -12.6322550000  MEMB      139             0.0000000000
     16201       139  CHL1      H7A            21.7434287155      -16.6012505911      -11.9686950000  MEMB      139             0.0000000000
     16202       139  CHL1      H7B            23.3722047198      -17.2402255360      -12.4283350000  MEMB      139             0.0000000000
     16203       139  CHL1      C8             23.1723549317      -15.0392274439      -12.1398650000  MEMB      139             0.0000000000
     16204       139  CHL1      H8             22.4385062772      -14.2161775825      -12.0043650000  MEMB      139             0.0000000000
     16205       139  CHL1      C14            23.9869323997      -15.2903315313      -10.7722850000  MEMB      139             0.0000000000
     16206       139  CHL1      H14            24.8375352735      -15.9688232028      -10.9968750000  MEMB      139             0.0000000000
     16207       139  CHL1      C15            23.1469786701      -15.9510985476       -9.6403450000  MEMB      139             0.0000000000
     16208       139  CHL1      H15A           22.1356145854      -15.5531156924       -9.4099750000  MEMB      139             0.0000000000
     16209       139  CHL1      H15B           23.1502907519      -17.0559599479       -9.7569050000  MEMB      139             0.0000000000
     16210       139  CHL1      C16            23.9270048974      -15.4874985716       -8.4306450000  MEMB      139             0.0000000000
     16211       139  CHL1      H16A           23.3815936657      -14.8068313729       -7.7425050000  MEMB      139             0.0000000000
     16212       139  CHL1      H16B           24.2788582009      -16.3751262062       -7.8626350000  MEMB      139             0.0000000000
     16213       139  CHL1      C17            25.1191333382      -14.6611901512       -8.9502550000  MEMB      139             0.0000000000
     16214       139  CHL1      H17            25.9565328730      -15.3458500589       -9.2039150000  MEMB      139             0.0000000000
     16215       139  CHL1      C13            24.6424404419      -14.0107886359      -10.2281250000  MEMB      139             0.0000000000
     16216       139  CHL1      C18            23.6060805455      -12.9240573981       -9.8648650000  MEMB      139             0.0000000000
     16217       139  CHL1      H18A           23.0389940261      -12.5929043995      -10.7610050000  MEMB      139             0.0000000000
     16218       139  CHL1      H18B           22.8470593476      -13.2520727186       -9.1228350000  MEMB      139             0.0000000000
     16219       139  CHL1      H18C           24.1303635441      -12.0303850488       -9.4638850000  MEMB      139             0.0000000000
     16220       139  CHL1      C12            25.6958626903      -13.5797995982      -11.2252850000  MEMB      139             0.0000000000
     16221       139  CHL1      H12A           26.0582375169      -12.5599792911      -10.9743450000  MEMB      139             0.0000000000
     16222       139  CHL1      H12B           26.5451984954      -14.2926998520      -11.2938550000  MEMB      139             0.0000000000
     16223       139  CHL1      C11            25.0613586521      -13.3987216803      -12.6504350000  MEMB      139             0.0000000000
     16224       139  CHL1      H11A           24.3748487822      -12.5262302496      -12.6082350000  MEMB      139             0.0000000000
     16225       139  CHL1      H11B           25.8735354121      -13.1755142975      -13.3749150000  MEMB      139             0.0000000000
     16226       139  CHL1      C9             24.1333231860      -14.5470578801      -13.2277150000  MEMB      139             0.0000000000
     16227       139  CHL1      H9             24.8483640118      -15.3595963345      -13.4783450000  MEMB      139             0.0000000000
     16228       139  CHL1      C10            23.4135207752      -14.2053183385      -14.5863650000  MEMB      139             0.0000000000
     16229       139  CHL1      C19            22.6323463644      -12.8799677014      -14.4599450000  MEMB      139             0.0000000000
     16230       139  CHL1      H19A           22.2729743101      -12.5589998858      -15.4610250000  MEMB      139             0.0000000000
     16231       139  CHL1      H19B           21.8784333964      -12.8629302785      -13.6440650000  MEMB      139             0.0000000000
     16232       139  CHL1      H19C           23.3227459835      -12.0906483227      -14.0930050000  MEMB      139             0.0000000000
     16233       139  CHL1      C1             24.3910498691      -13.9942103841      -15.7323350000  MEMB      139             0.0000000000
     16234       139  CHL1      H1A            25.0573296758      -13.1122958374      -15.6199650000  MEMB      139             0.0000000000
     16235       139  CHL1      H1B            25.0334963597      -14.8944043472      -15.8383350000  MEMB      139             0.0000000000
     16236       139  CHL1      C2             23.7127703290      -13.9975974050      -17.1742250000  MEMB      139             0.0000000000
     16237       139  CHL1      H2A            24.5940763095      -13.9661718229      -17.8499650000  MEMB      139             0.0000000000
     16238       139  CHL1      H2B            23.0319571124      -13.1208561931      -17.1279850000  MEMB      139             0.0000000000
     16239       139  CHL1      C20            25.7017284857      -13.8276596259       -7.6958750000  MEMB      139             0.0000000000
     16240       139  CHL1      H20            24.8517842243      -13.1949606376       -7.3617950000  MEMB      139             0.0000000000
     16241       139  CHL1      C21            26.8009316775      -12.9236131036       -8.1512150000  MEMB      139             0.0000000000
     16242       139  CHL1      H21A           27.4468067424      -13.5305754808       -8.8211150000  MEMB      139             0.0000000000
     16243       139  CHL1      H21B           27.4613194096      -12.5881128894       -7.3231750000  MEMB      139             0.0000000000
     16244       139  CHL1      H21C           26.5334525756      -11.9617297829       -8.6385950000  MEMB      139             0.0000000000
     16245       139  CHL1      C22            26.0897149688      -14.7502614600       -6.5201550000  MEMB      139             0.0000000000
     16246       139  CHL1      H22A           26.4304609785      -14.0983030569       -5.6875850000  MEMB      139             0.0000000000
     16247       139  CHL1      H22B           25.1344778353      -15.2017928637       -6.1766950000  MEMB      139             0.0000000000
     16248       139  CHL1      C23            27.0873138587      -15.8199008730       -6.8493050000  MEMB      139             0.0000000000
     16249       139  CHL1      H23A           26.9944481820      -16.4220338471       -7.7783550000  MEMB      139             0.0000000000
     16250       139  CHL1      H23B           28.0035841969      -15.1930334280       -6.8919450000  MEMB      139             0.0000000000
     16251       139  CHL1      C24            27.3681798682      -16.8182891482       -5.6929850000  MEMB      139             0.0000000000
     16252       139  CHL1      H24A           27.6951160884      -16.2240242830       -4.8130550000  MEMB      139             0.0000000000
     16253       139  CHL1      H24B           26.4989123868      -17.4553673496       -5.4231150000  MEMB      139             0.0000000000
     16254       139  CHL1      C25            28.5636735660      -17.7458256280       -5.8830150000  MEMB      139             0.0000000000
     16255       139  CHL1      H25            29.3676880882      -17.1571523914       -6.3742850000  MEMB      139             0.0000000000
     16256       139  CHL1      C26            29.1958479945      -18.4188719296       -4.6070750000  MEMB      139             0.0000000000
     16257       139  CHL1      H26A           29.3554083126      -17.6515115697       -3.8196550000  MEMB      139             0.0000000000
     16258       139  CHL1      H26B           28.6242833085      -19.2831064387       -4.2061650000  MEMB      139             0.0000000000
     16259       139  CHL1      H26C           30.2273588513      -18.7440653153       -4.8611450000  MEMB      139             0.0000000000
     16260       139  CHL1      C27            28.3546657706      -18.8937107165       -6.8720850000  MEMB      139             0.0000000000
     16261       139  CHL1      H27A           28.0667462800      -18.5384307785       -7.8846050000  MEMB      139             0.0000000000
     16262       139  CHL1      H27B           29.2623682171      -19.5222109847       -6.9961050000  MEMB      139             0.0000000000
     16263       139  CHL1      H27C           27.5140856735      -19.5369741971       -6.5344950000  MEMB      139             0.0000000000
     16264       140  OSM       N              -4.7464145078      -28.4499116951      -19.8032420453  MEMB      140             0.0000000000
     16265       140  OSM       C15            -5.6967012312      -29.5095732290      -19.2573833286  MEMB      140             0.0000000000
     16266       140  OSM       H15A           -6.1467756423      -30.1949503801      -19.9602995336  MEMB      140             0.0000000000
     16267       140  OSM       H15B           -6.5055555813      -29.0858131684      -18.6806839161  MEMB      140             0.0000000000
     16268       140  OSM       H15C           -5.1515816736      -30.1910957573      -18.6211665795  MEMB      140             0.0000000000
     16269       140  OSM       C14            -5.4622309693      -27.1350166038      -20.1174405930  MEMB      140             0.0000000000
     16270       140  OSM       H14A           -6.1734585868      -27.0017733214      -19.3156915839  MEMB      140             0.0000000000
     16271       140  OSM       H14B           -6.0201949507      -27.3400015417      -21.0191374132  MEMB      140             0.0000000000
     16272       140  OSM       H14C           -4.7642540288      -26.3118807223      -20.1583746794  MEMB      140             0.0000000000
     16273       140  OSM       C13            -3.7344458993      -28.1711977009      -18.7676057000  MEMB      140             0.0000000000
     16274       140  OSM       H13A           -4.0892805592      -27.5970696529      -17.9244750192  MEMB      140             0.0000000000
     16275       140  OSM       H13B           -3.0316907490      -27.4036255033      -19.0563411047  MEMB      140             0.0000000000
     16276       140  OSM       H13C           -3.1288302420      -29.0009424697      -18.4342090905  MEMB      140             0.0000000000
     16277       140  OSM       C12            -4.0317926303      -29.0477690700      -20.9779718763  MEMB      140             0.0000000000
     16278       140  OSM       H12A           -4.7847136896      -29.2725646290      -21.7189015894  MEMB      140             0.0000000000
     16279       140  OSM       H12B           -3.5283892622      -29.9329342160      -20.6181554472  MEMB      140             0.0000000000
     16280       140  OSM       C11            -2.9561771237      -28.2281249584      -21.7131154581  MEMB      140             0.0000000000
     16281       140  OSM       H11A           -2.5066493009      -28.6757410167      -22.6251930803  MEMB      140             0.0000000000
     16282       140  OSM       H11B           -2.0896445423      -28.2839760275      -21.0200620735  MEMB      140             0.0000000000
     16283       140  OSM       P              -1.9713530472      -25.8103841158      -22.1890751431  MEMB      140             0.0000000000
     16284       140  OSM       O13            -0.6712937531      -26.5242248385      -22.2647731327  MEMB      140             0.0000000000
     16285       140  OSM       O14            -2.3445627788      -24.8277980495      -23.2154410538  MEMB      140             0.0000000000
     16286       140  OSM       O11            -1.9232864325      -25.0711581455      -20.7798309992  MEMB      140             0.0000000000
     16287       140  OSM       O12            -3.2119509574      -26.8004487101      -21.9141206745  MEMB      140             0.0000000000
     16288       140  OSM       C1S            -1.1753991024      -25.5946087866      -19.7218876090  MEMB      140             0.0000000000
     16289       140  OSM       H1S            -0.0730352802      -25.4757314829      -19.7924781204  MEMB      140             0.0000000000
     16290       140  OSM       H1T            -1.2703315952      -26.7003746417      -19.6709880354  MEMB      140             0.0000000000
     16291       140  OSM       NF             -1.1484323864      -25.6699816524      -17.2266921645  MEMB      140             0.0000000000
     16292       140  OSM       HNF            -1.8936499484      -26.2667896068      -16.9394986929  MEMB      140             0.0000000000
     16293       140  OSM       C2S            -1.5677358275      -24.9157632911      -18.3755072541  MEMB      140             0.0000000000
     16294       140  OSM       H2S            -1.0629034242      -23.9302589059      -18.2846971633  MEMB      140             0.0000000000
     16295       140  OSM       C3S            -3.0907947226      -24.6802781949      -18.1934676571  MEMB      140             0.0000000000
     16296       140  OSM       H3S            -3.7537167408      -25.5210095270      -18.4901597848  MEMB      140             0.0000000000
     16297       140  OSM       O3             -3.4556810958      -23.5836025982      -19.0025752562  MEMB      140             0.0000000000
     16298       140  OSM       HO3            -2.6164024735      -23.2627201972      -19.3405779071  MEMB      140             0.0000000000
     16299       140  OSM       C4S            -3.5701735467      -24.3387534389      -16.7546115459  MEMB      140             0.0000000000
     16300       140  OSM       H4S            -3.3622049579      -23.3065724464      -16.4362541470  MEMB      140             0.0000000000
     16301       140  OSM       C5S            -3.9716444896      -25.2453372975      -15.8227402559  MEMB      140             0.0000000000
     16302       140  OSM       H5S            -4.1270772782      -26.2720583972      -16.1856237631  MEMB      140             0.0000000000
     16303       140  OSM       C6S            -4.3967745565      -25.1076831904      -14.4183939741  MEMB      140             0.0000000000
     16304       140  OSM       H6S            -4.6850545054      -26.1045369432      -14.0215337453  MEMB      140             0.0000000000
     16305       140  OSM       H6T            -5.3395831710      -24.5697558735      -14.1816087914  MEMB      140             0.0000000000
     16306       140  OSM       C7S            -3.2288270636      -24.6818734253      -13.4745192930  MEMB      140             0.0000000000
     16307       140  OSM       H7S            -2.8437089365      -23.7000178706      -13.8237537521  MEMB      140             0.0000000000
     16308       140  OSM       H7T            -2.3782691903      -25.3834834399      -13.3380793866  MEMB      140             0.0000000000
     16309       140  OSM       C8S            -3.8558579988      -24.4857212193      -12.0659409896  MEMB      140             0.0000000000
     16310       140  OSM       H8S            -4.1502924681      -25.4933191405      -11.7021060572  MEMB      140             0.0000000000
     16311       140  OSM       H8T            -4.7245636969      -23.7965293099      -12.1343940845  MEMB      140             0.0000000000
     16312       140  OSM       C9S            -2.7580266676      -23.9690799570      -11.1434321717  MEMB      140             0.0000000000
     16313       140  OSM       H9S            -2.3675243814      -22.9834937385      -11.4757715180  MEMB      140             0.0000000000
     16314       140  OSM       H9T            -1.8751558695      -24.6397450655      -11.0722367664  MEMB      140             0.0000000000
     16315       140  OSM       C10S           -3.1520370047      -23.8911570229       -9.6190355867  MEMB      140             0.0000000000
     16316       140  OSM       H10S           -4.0036512840      -23.2058303776       -9.4205360751  MEMB      140             0.0000000000
     16317       140  OSM       H10T           -2.3076272149      -23.4010976095       -9.0888137489  MEMB      140             0.0000000000
     16318       140  OSM       C11S           -3.4278524991      -25.3037604014       -8.8696962258  MEMB      140             0.0000000000
     16319       140  OSM       H11S           -2.5963626924      -25.9839638520       -9.1530142305  MEMB      140             0.0000000000
     16320       140  OSM       H11T           -4.4190613750      -25.6908752976       -9.1890206810  MEMB      140             0.0000000000
     16321       140  OSM       C12S           -3.5722576329      -25.1467502012       -7.2783824235  MEMB      140             0.0000000000
     16322       140  OSM       H12S           -4.1564776730      -25.9810614864       -6.8346120412  MEMB      140             0.0000000000
     16323       140  OSM       H12T           -4.2099732467      -24.2672219900       -7.0458525243  MEMB      140             0.0000000000
     16324       140  OSM       C13S           -2.2208123364      -25.0369774451       -6.5140182972  MEMB      140             0.0000000000
     16325       140  OSM       H13S           -1.8038650670      -24.0079868877       -6.4733468783  MEMB      140             0.0000000000
     16326       140  OSM       H13T           -1.4380068206      -25.6148845402       -7.0502647080  MEMB      140             0.0000000000
     16327       140  OSM       C14S           -2.2393480304      -25.6850548010       -5.1099971685  MEMB      140             0.0000000000
     16328       140  OSM       H14S           -2.4731872947      -26.7614318926       -4.9649010533  MEMB      140             0.0000000000
     16329       140  OSM       H14T           -2.9829283190      -25.1672009664       -4.4671619875  MEMB      140             0.0000000000
     16330       140  OSM       C15S           -0.8639448702      -25.3814430457       -4.4124050470  MEMB      140             0.0000000000
     16331       140  OSM       H15S           -0.8314057406      -24.2718763706       -4.3663164429  MEMB      140             0.0000000000
     16332       140  OSM       H15T            0.0064917308      -25.6762321417       -5.0367137729  MEMB      140             0.0000000000
     16333       140  OSM       C16S           -0.7136277033      -25.9863652451       -2.9702037910  MEMB      140             0.0000000000
     16334       140  OSM       H16S            0.2355502912      -25.5734180187       -2.5666479232  MEMB      140             0.0000000000
     16335       140  OSM       H16T           -0.5135655660      -27.0789678506       -2.9929139887  MEMB      140             0.0000000000
     16336       140  OSM       C17S           -1.9755323825      -25.7162790122       -2.1257077257  MEMB      140             0.0000000000
     16337       140  OSM       H17S           -2.8285484542      -26.2605394007       -2.5844712343  MEMB      140             0.0000000000
     16338       140  OSM       H17T           -2.3085296860      -24.6564154779       -2.1146370102  MEMB      140             0.0000000000
     16339       140  OSM       C18S           -1.9048884717      -26.1817119387       -0.6871282430  MEMB      140             0.0000000000
     16340       140  OSM       H18S           -1.1145048662      -25.6170338450       -0.1479126346  MEMB      140             0.0000000000
     16341       140  OSM       H18T           -1.6154008037      -27.2451324278       -0.5469324387  MEMB      140             0.0000000000
     16342       140  OSM       H18U           -2.8871697991      -25.9594832979       -0.2180250510  MEMB      140             0.0000000000
     16343       140  OSM       C1F             0.1170845340      -25.8389808550      -16.7389894599  MEMB      140             0.0000000000
     16344       140  OSM       OF              1.1514879630      -25.3980317489      -17.2938407052  MEMB      140             0.0000000000
     16345       140  OSM       C2F             0.3546898725      -26.6874987763      -15.5249449057  MEMB      140             0.0000000000
     16346       140  OSM       H2F             0.6555877340      -27.6718223145      -15.9431416491  MEMB      140             0.0000000000
     16347       140  OSM       H2G            -0.6862081612      -26.7908744598      -15.1505576517  MEMB      140             0.0000000000
     16348       140  OSM       C3F             1.2990158798      -26.0974026643      -14.4962711143  MEMB      140             0.0000000000
     16349       140  OSM       H3F             0.9077270988      -25.1109698301      -14.1673877869  MEMB      140             0.0000000000
     16350       140  OSM       H3G             2.2867480925      -25.9416671433      -14.9804738570  MEMB      140             0.0000000000
     16351       140  OSM       C4F             1.3878342770      -27.1891795716      -13.3095664808  MEMB      140             0.0000000000
     16352       140  OSM       H4F             1.9844228191      -26.8416898010      -12.4391333267  MEMB      140             0.0000000000
     16353       140  OSM       H4G             1.9352918780      -28.0587851681      -13.7319374335  MEMB      140             0.0000000000
     16354       140  OSM       C5F             0.0987158750      -27.7957228137      -12.8001522752  MEMB      140             0.0000000000
     16355       140  OSM       H5F            -0.5005123366      -28.3791149682      -13.5315210542  MEMB      140             0.0000000000
     16356       140  OSM       H5G            -0.5611100504      -26.9697618000      -12.4584810327  MEMB      140             0.0000000000
     16357       140  OSM       C6F             0.3161625822      -28.7565993780      -11.6061483099  MEMB      140             0.0000000000
     16358       140  OSM       H6F             0.8654885286      -28.1962044833      -10.8196882252  MEMB      140             0.0000000000
     16359       140  OSM       H6G             1.1144615355      -29.4672917932      -11.9093907393  MEMB      140             0.0000000000
     16360       140  OSM       C7F            -0.8687825627      -29.6113005478      -11.2173792088  MEMB      140             0.0000000000
     16361       140  OSM       H7F            -0.5879343622      -30.5117618551      -10.6303403229  MEMB      140             0.0000000000
     16362       140  OSM       H7G            -1.2476950600      -30.1080655063      -12.1360582365  MEMB      140             0.0000000000
     16363       140  OSM       C8F            -2.0862742494      -28.8392435170      -10.6581997185  MEMB      140             0.0000000000
     16364       140  OSM       H8F            -2.9349191564      -29.5401428878      -10.8094048400  MEMB      140             0.0000000000
     16365       140  OSM       H8G            -2.1995504057      -27.9396549718      -11.3002516367  MEMB      140             0.0000000000
     16366       140  OSM       C9F            -1.7120727734      -28.6579941451       -9.2153986484  MEMB      140             0.0000000000
     16367       140  OSM       H9F            -0.6295936616      -28.4803441356       -9.1336701313  MEMB      140             0.0000000000
     16368       140  OSM       C10F           -2.4924392217      -28.6095276517       -8.1278072125  MEMB      140             0.0000000000
     16369       140  OSM       H10F           -2.0888973049      -28.2418506705       -7.1728372292  MEMB      140             0.0000000000
     16370       140  OSM       C11F           -4.0360250353      -28.7720406394       -8.1202364914  MEMB      140             0.0000000000
     16371       140  OSM       H11F           -4.2402995451      -28.9679699111       -9.1945763084  MEMB      140             0.0000000000
     16372       140  OSM       H11G           -4.5056574083      -27.7731839413       -7.9935409492  MEMB      140             0.0000000000
     16373       140  OSM       C12F           -4.7082095900      -29.7043642838       -7.1580015586  MEMB      140             0.0000000000
     16374       140  OSM       H12F           -4.4562541949      -30.7817892012       -7.2579766721  MEMB      140             0.0000000000
     16375       140  OSM       H12G           -5.7524376098      -29.5783341381       -7.5158069810  MEMB      140             0.0000000000
     16376       140  OSM       C13F           -4.6262423791      -29.1828213886       -5.6946301179  MEMB      140             0.0000000000
     16377       140  OSM       H13F           -4.7805130441      -28.0910007047       -5.8304593909  MEMB      140             0.0000000000
     16378       140  OSM       H13G           -3.6244904772      -29.3268891877       -5.2363092559  MEMB      140             0.0000000000
     16379       140  OSM       C14F           -5.8467896797      -29.6741305461       -4.8730768369  MEMB      140             0.0000000000
     16380       140  OSM       H14F           -5.7735452298      -30.7823346550       -4.9020551026  MEMB      140             0.0000000000
     16381       140  OSM       H14G           -6.7698223073      -29.3009940886       -5.3661297773  MEMB      140             0.0000000000
     16382       140  OSM       C15F           -5.7580711630      -29.1889536928       -3.3928906488  MEMB      140             0.0000000000
     16383       140  OSM       H15F           -6.5998095192      -29.6421811560       -2.8268675320  MEMB      140             0.0000000000
     16384       140  OSM       H15G           -5.8100415331      -28.0895713192       -3.5444743242  MEMB      140             0.0000000000
     16385       140  OSM       C16F           -4.3942155204      -29.4908056879       -2.7217173058  MEMB      140             0.0000000000
     16386       140  OSM       H16F           -3.8370963217      -28.5299033165       -2.6971061302  MEMB      140             0.0000000000
     16387       140  OSM       H16G           -3.8886430262      -30.2696654043       -3.3317134465  MEMB      140             0.0000000000
     16388       140  OSM       C17F           -4.4631552799      -29.9095753503       -1.2819134183  MEMB      140             0.0000000000
     16389       140  OSM       H17F           -5.2655590747      -30.6777414913       -1.2621607872  MEMB      140             0.0000000000
     16390       140  OSM       H17G           -4.8312214869      -29.0469952139       -0.6862592908  MEMB      140             0.0000000000
     16391       140  OSM       C18F           -3.1699052938      -30.4752207178       -0.8016430873  MEMB      140             0.0000000000
     16392       140  OSM       H18F           -2.2177407940      -29.9550277195       -1.0406064986  MEMB      140             0.0000000000
     16393       140  OSM       H18G           -3.1390970163      -31.5111888643       -1.2018205786  MEMB      140             0.0000000000
     16394       140  OSM       H18H           -3.2697136846      -30.5678909232        0.3009764799  MEMB      140             0.0000000000
     16395       141  SAPE      N              -8.9209501324      -23.8438560540      -18.5392953249  MEMB      141             0.0000000000
     16396       141  SAPE      HN1            -8.4171463091      -24.6726757232      -18.9145811923  MEMB      141             0.0000000000
     16397       141  SAPE      HN2            -8.1961657116      -23.1349253114      -18.3075517490  MEMB      141             0.0000000000
     16398       141  SAPE      HN3            -9.3568076281      -24.0179249520      -17.6112177416  MEMB      141             0.0000000000
     16399       141  SAPE      C12           -10.0640949373      -23.4057144565      -19.4526757210  MEMB      141             0.0000000000
     16400       141  SAPE      H12A           -9.5543025952      -23.2058582472      -20.4193661061  MEMB      141             0.0000000000
     16401       141  SAPE      H12B          -10.3942316356      -22.4358494798      -19.0229163666  MEMB      141             0.0000000000
     16402       141  SAPE      C11           -11.2341773345      -24.3675305831      -19.6722978107  MEMB      141             0.0000000000
     16403       141  SAPE      H11A          -12.0096352085      -23.8639087800      -20.2882126642  MEMB      141             0.0000000000
     16404       141  SAPE      H11B          -11.6614336264      -24.6853991998      -18.6972426217  MEMB      141             0.0000000000
     16405       141  SAPE      P             -11.4801800744      -26.7818981725      -20.5470503272  MEMB      141             0.0000000000
     16406       141  SAPE      O13           -12.8725448389      -26.8054775327      -21.0593329039  MEMB      141             0.0000000000
     16407       141  SAPE      O14           -10.5759636412      -27.7400220256      -21.1925592154  MEMB      141             0.0000000000
     16408       141  SAPE      O12           -10.9554601543      -25.3646036495      -20.5308816632  MEMB      141             0.0000000000
     16409       141  SAPE      O11           -11.5355272879      -27.0088927239      -19.0059070549  MEMB      141             0.0000000000
     16410       141  SAPE      C1            -12.4935068178      -27.9746718075      -18.4907414252  MEMB      141             0.0000000000
     16411       141  SAPE      HA            -12.4915856657      -28.9181523927      -19.0773942172  MEMB      141             0.0000000000
     16412       141  SAPE      HB            -12.1365926990      -28.0835412612      -17.4442805169  MEMB      141             0.0000000000
     16413       141  SAPE      C2            -13.8678363224      -27.3469960142      -18.2729226612  MEMB      141             0.0000000000
     16414       141  SAPE      HS            -14.3338154768      -27.2388428132      -19.2756625010  MEMB      141             0.0000000000
     16415       141  SAPE      O21           -13.6388117997      -26.0870911864      -17.7065432152  MEMB      141             0.0000000000
     16416       141  SAPE      C21           -14.6144565472      -25.1571308103      -17.5963084102  MEMB      141             0.0000000000
     16417       141  SAPE      O22           -15.7371873699      -25.2380943497      -17.9891801461  MEMB      141             0.0000000000
     16418       141  SAPE      C22           -14.0636531109      -23.8950117420      -16.9386959899  MEMB      141             0.0000000000
     16419       141  SAPE      H2R           -13.1309095238      -23.5557417649      -17.4379016573  MEMB      141             0.0000000000
     16420       141  SAPE      H2S           -14.7857670354      -23.0829429100      -17.1698155894  MEMB      141             0.0000000000
     16421       141  SAPE      C3            -14.8608459214      -28.2480591768      -17.4063065470  MEMB      141             0.0000000000
     16422       141  SAPE      HX            -14.9724468328      -29.2355127115      -17.9030983595  MEMB      141             0.0000000000
     16423       141  SAPE      HY            -15.7708135228      -27.6161253481      -17.4896094972  MEMB      141             0.0000000000
     16424       141  SAPE      O31           -14.3392171969      -28.2788686490      -16.0543081982  MEMB      141             0.0000000000
     16425       141  SAPE      C31           -14.3177947016      -29.2402129977      -15.2625157667  MEMB      141             0.0000000000
     16426       141  SAPE      O32           -14.8956437972      -30.3029111643      -15.3635328030  MEMB      141             0.0000000000
     16427       141  SAPE      C32           -13.3225016265      -28.8714270217      -14.1366628201  MEMB      141             0.0000000000
     16428       141  SAPE      H2X           -13.8557220373      -29.0860786156      -13.1859147150  MEMB      141             0.0000000000
     16429       141  SAPE      H2Y           -13.0638045810      -27.7935734106      -14.2116840784  MEMB      141             0.0000000000
     16430       141  SAPE      C23           -13.8817340227      -24.2168798170      -15.4926549261  MEMB      141             0.0000000000
     16431       141  SAPE      H3R           -14.7381112283      -24.6503775941      -14.9331740928  MEMB      141             0.0000000000
     16432       141  SAPE      H3S           -13.6703289962      -23.2610164028      -14.9673413423  MEMB      141             0.0000000000
     16433       141  SAPE      C24           -12.5127714749      -24.9138907241      -15.0982698890  MEMB      141             0.0000000000
     16434       141  SAPE      H4R           -12.3532656540      -25.8974860172      -15.5896142056  MEMB      141             0.0000000000
     16435       141  SAPE      H4S           -12.5955182918      -25.0430576300      -13.9979109793  MEMB      141             0.0000000000
     16436       141  SAPE      C25           -11.3249424918      -24.0676451990      -15.5883062090  MEMB      141             0.0000000000
     16437       141  SAPE      H5R           -11.2120284434      -24.0854878521      -16.6823503189  MEMB      141             0.0000000000
     16438       141  SAPE      C26           -10.5121191724      -23.2994851072      -14.9190393429  MEMB      141             0.0000000000
     16439       141  SAPE      H6R            -9.7245284143      -22.7482167962      -15.4536459877  MEMB      141             0.0000000000
     16440       141  SAPE      C27           -10.4507967435      -23.0230914178      -13.4012955635  MEMB      141             0.0000000000
     16441       141  SAPE      H7R            -9.3754494942      -22.7969661795      -13.2375377374  MEMB      141             0.0000000000
     16442       141  SAPE      H7S           -10.5650380331      -23.9777177974      -12.8445567289  MEMB      141             0.0000000000
     16443       141  SAPE      C28           -11.2741714101      -21.8773255289      -12.8494876456  MEMB      141             0.0000000000
     16444       141  SAPE      H8R           -11.3470756733      -21.0496657773      -13.5703649095  MEMB      141             0.0000000000
     16445       141  SAPE      C29           -11.8619233556      -21.6842712104      -11.6722282053  MEMB      141             0.0000000000
     16446       141  SAPE      H9R           -12.5760645415      -20.8476517871      -11.6638647931  MEMB      141             0.0000000000
     16447       141  SAPE      C210          -11.8506592664      -22.6493549457      -10.4535433729  MEMB      141             0.0000000000
     16448       141  SAPE      H10R          -11.2268290021      -22.2362490423       -9.6322639408  MEMB      141             0.0000000000
     16449       141  SAPE      H10S          -11.3717641719      -23.6307631686      -10.6580401253  MEMB      141             0.0000000000
     16450       141  SAPE      C211          -13.2691022929      -22.8387748581       -9.8901828839  MEMB      141             0.0000000000
     16451       141  SAPE      H11R          -13.9774267372      -22.0471943969       -9.6043898658  MEMB      141             0.0000000000
     16452       141  SAPE      C212          -13.7774776111      -24.0881329091       -9.6693613605  MEMB      141             0.0000000000
     16453       141  SAPE      H12R          -14.7974960625      -24.2020911151       -9.2736643226  MEMB      141             0.0000000000
     16454       141  SAPE      C213          -13.0814979073      -25.4060919843       -9.8780034663  MEMB      141             0.0000000000
     16455       141  SAPE      H13R          -12.6081232769      -25.4640986885      -10.8814338184  MEMB      141             0.0000000000
     16456       141  SAPE      H13S          -13.8344177559      -26.2227807091       -9.8992781202  MEMB      141             0.0000000000
     16457       141  SAPE      C214          -12.1475311123      -25.7257120246       -8.7603147721  MEMB      141             0.0000000000
     16458       141  SAPE      H14R          -11.2350788186      -25.1124342588       -8.7239644937  MEMB      141             0.0000000000
     16459       141  SAPE      C215          -12.3147233457      -26.4285165743       -7.6142495612  MEMB      141             0.0000000000
     16460       141  SAPE      H15R          -11.3841290726      -26.5801771151       -7.0476867924  MEMB      141             0.0000000000
     16461       141  SAPE      C216          -13.5675393572      -27.1168834403       -7.1052703739  MEMB      141             0.0000000000
     16462       141  SAPE      H16R          -13.3282129056      -27.9600365552       -6.4225277894  MEMB      141             0.0000000000
     16463       141  SAPE      H16S          -14.1449689792      -27.5801338540       -7.9336990441  MEMB      141             0.0000000000
     16464       141  SAPE      C217          -14.6127433351      -26.1804725072       -6.4369482779  MEMB      141             0.0000000000
     16465       141  SAPE      H17R          -15.5671207002      -26.7336383150       -6.3046883613  MEMB      141             0.0000000000
     16466       141  SAPE      H17S          -14.8278270228      -25.2782227932       -7.0485077386  MEMB      141             0.0000000000
     16467       141  SAPE      C218          -14.3002825783      -25.5431291028       -5.0772709831  MEMB      141             0.0000000000
     16468       141  SAPE      H18R          -15.1358719117      -24.8373477768       -4.8823759749  MEMB      141             0.0000000000
     16469       141  SAPE      H18S          -13.3215031258      -25.0192574463       -5.1205212164  MEMB      141             0.0000000000
     16470       141  SAPE      C219          -14.2946081588      -26.5384154613       -3.8926678826  MEMB      141             0.0000000000
     16471       141  SAPE      H19R          -13.4545868738      -26.3418224286       -3.1926420510  MEMB      141             0.0000000000
     16472       141  SAPE      H19S          -14.1612567562      -27.5288718581       -4.3779868783  MEMB      141             0.0000000000
     16473       141  SAPE      C220          -15.5765665872      -26.5298751640       -3.0045432675  MEMB      141             0.0000000000
     16474       141  SAPE      H20R          -15.6851858856      -25.5941083657       -2.4155928313  MEMB      141             0.0000000000
     16475       141  SAPE      H20S          -15.5651319777      -27.3246977476       -2.2283677219  MEMB      141             0.0000000000
     16476       141  SAPE      H20T          -16.5146131820      -26.6453753642       -3.5885377153  MEMB      141             0.0000000000
     16477       141  SAPE      C33           -12.0503467054      -29.7480863862      -14.3644269105  MEMB      141             0.0000000000
     16478       141  SAPE      H3X           -11.3681194996      -29.2065372825      -15.0540731110  MEMB      141             0.0000000000
     16479       141  SAPE      H3Y           -12.3742385414      -30.7016719916      -14.8335639885  MEMB      141             0.0000000000
     16480       141  SAPE      C34           -11.1769149079      -30.0582092413      -13.1353869724  MEMB      141             0.0000000000
     16481       141  SAPE      H4X           -10.3937166866      -30.8292831544      -13.2977642454  MEMB      141             0.0000000000
     16482       141  SAPE      H4Y           -11.8889927375      -30.5238465896      -12.4209311018  MEMB      141             0.0000000000
     16483       141  SAPE      C35           -10.4998562857      -28.8516642894      -12.6072048533  MEMB      141             0.0000000000
     16484       141  SAPE      H5X           -11.3859867268      -28.2221908514      -12.3772980330  MEMB      141             0.0000000000
     16485       141  SAPE      H5Y            -9.8093268717      -28.3471582291      -13.3164042250  MEMB      141             0.0000000000
     16486       141  SAPE      C36            -9.6472794542      -29.1578403526      -11.3937265917  MEMB      141             0.0000000000
     16487       141  SAPE      H6X            -8.6800487199      -29.6988299231      -11.4719318404  MEMB      141             0.0000000000
     16488       141  SAPE      H6Y           -10.2504822277      -29.7627647963      -10.6834210708  MEMB      141             0.0000000000
     16489       141  SAPE      C37            -9.3111555934      -27.8373232635      -10.5438363527  MEMB      141             0.0000000000
     16490       141  SAPE      H7X           -10.2949819840      -27.5548087710      -10.1118740188  MEMB      141             0.0000000000
     16491       141  SAPE      H7Y            -8.9833260339      -27.0318226642      -11.2352252756  MEMB      141             0.0000000000
     16492       141  SAPE      C38            -8.3292272779      -28.0639300924       -9.4225437717  MEMB      141             0.0000000000
     16493       141  SAPE      H8X            -8.3190794906      -27.0977131900       -8.8742346629  MEMB      141             0.0000000000
     16494       141  SAPE      H8Y            -7.2921256398      -28.1826292249       -9.8028753397  MEMB      141             0.0000000000
     16495       141  SAPE      C39            -8.5135488752      -29.2795946508       -8.4999734122  MEMB      141             0.0000000000
     16496       141  SAPE      H9X            -7.6290340194      -29.4333535762       -7.8455176764  MEMB      141             0.0000000000
     16497       141  SAPE      H9Y            -8.5116018629      -30.1887225315       -9.1385688401  MEMB      141             0.0000000000
     16498       141  SAPE      C310           -9.8125461789      -29.0463073930       -7.6707497859  MEMB      141             0.0000000000
     16499       141  SAPE      H10X          -10.5948488257      -29.0312517273       -8.4594809149  MEMB      141             0.0000000000
     16500       141  SAPE      H10Y           -9.6679015327      -28.1053398628       -7.0980549111  MEMB      141             0.0000000000
     16501       141  SAPE      C311           -9.9576524839      -30.1218778639       -6.5739208659  MEMB      141             0.0000000000
     16502       141  SAPE      H11X           -9.0359957142      -30.1939562840       -5.9577437047  MEMB      141             0.0000000000
     16503       141  SAPE      H11Y           -9.8543541086      -31.1303409481       -7.0285116096  MEMB      141             0.0000000000
     16504       141  SAPE      C312          -11.3364628172      -30.0014903739       -5.8798632437  MEMB      141             0.0000000000
     16505       141  SAPE      H12X          -11.5653607416      -30.9945654460       -5.4374511927  MEMB      141             0.0000000000
     16506       141  SAPE      H12Y          -12.1827459999      -29.9362787532       -6.5967126178  MEMB      141             0.0000000000
     16507       141  SAPE      C313          -11.4646132480      -28.8638672559       -4.7803736071  MEMB      141             0.0000000000
     16508       141  SAPE      H13X          -12.4728852421      -29.0669309710       -4.3602860160  MEMB      141             0.0000000000
     16509       141  SAPE      H13Y          -11.4345557976      -27.8501469114       -5.2340133328  MEMB      141             0.0000000000
     16510       141  SAPE      C314          -10.2921448300      -28.8934323516       -3.7969642256  MEMB      141             0.0000000000
     16511       141  SAPE      H14X           -9.4686656337      -28.4971531972       -4.4287594905  MEMB      141             0.0000000000
     16512       141  SAPE      H14Y          -10.0695884960      -29.9559916761       -3.5608353473  MEMB      141             0.0000000000
     16513       141  SAPE      C315          -10.4273814468      -28.0355976780       -2.5046410299  MEMB      141             0.0000000000
     16514       141  SAPE      H15X          -10.0210304663      -28.5726269116       -1.6210138693  MEMB      141             0.0000000000
     16515       141  SAPE      H15Y          -11.5248557689      -27.9991942448       -2.3356860172  MEMB      141             0.0000000000
     16516       141  SAPE      C316           -9.9495545223      -26.5838978263       -2.7415294761  MEMB      141             0.0000000000
     16517       141  SAPE      H16X          -10.5549694301      -26.0593076338       -3.5113340266  MEMB      141             0.0000000000
     16518       141  SAPE      H16Y           -8.8901363370      -26.6168829323       -3.0744944319  MEMB      141             0.0000000000
     16519       141  SAPE      C317           -9.9729201863      -25.6530786871       -1.4837043867  MEMB      141             0.0000000000
     16520       141  SAPE      H17X           -9.9197375922      -24.6376831369       -1.9314386375  MEMB      141             0.0000000000
     16521       141  SAPE      H17Y           -9.0336254869      -25.7280409684       -0.8951237128  MEMB      141             0.0000000000
     16522       141  SAPE      C318          -11.1810892038      -25.9488794164       -0.6348965889  MEMB      141             0.0000000000
     16523       141  SAPE      H18X          -11.2370704681      -25.2263883302        0.2072399977  MEMB      141             0.0000000000
     16524       141  SAPE      H18Y          -10.9772591712      -26.8822522629       -0.0678074901  MEMB      141             0.0000000000
     16525       141  SAPE      H18Z          -12.2304332568      -25.9550852015       -0.9998068946  MEMB      141             0.0000000000
     16526       142  SLPC      N             -13.0040436170       23.5506470933      -16.3749149602  MEMB      142             0.0000000000
     16527       142  SLPC      C13           -14.4015629504       24.0998366200      -16.6528442680  MEMB      142             0.0000000000
     16528       142  SLPC      H13A          -14.3888410357       25.1533094780      -16.4152879802  MEMB      142             0.0000000000
     16529       142  SLPC      H13B          -14.5370153017       23.9895021960      -17.7186204821  MEMB      142             0.0000000000
     16530       142  SLPC      H13C          -15.2262897726       23.7078433864      -16.0761580416  MEMB      142             0.0000000000
     16531       142  SLPC      C14           -12.9253172714       22.0789496224      -16.7907376397  MEMB      142             0.0000000000
     16532       142  SLPC      H14A          -12.6723583182       22.0889612822      -17.8406480054  MEMB      142             0.0000000000
     16533       142  SLPC      H14B          -12.1497419784       21.5708672634      -16.2369006946  MEMB      142             0.0000000000
     16534       142  SLPC      H14C          -13.8511489833       21.5576369372      -16.5971699467  MEMB      142             0.0000000000
     16535       142  SLPC      C15           -12.6969733590       23.6832345123      -14.8387900151  MEMB      142             0.0000000000
     16536       142  SLPC      H15A          -13.0787092025       22.7967087488      -14.3542804857  MEMB      142             0.0000000000
     16537       142  SLPC      H15B          -11.6373077666       23.8255114148      -14.6862582388  MEMB      142             0.0000000000
     16538       142  SLPC      H15C          -13.2587925988       24.5174682569      -14.4453271617  MEMB      142             0.0000000000
     16539       142  SLPC      C12           -11.8635217513       24.2727517936      -17.0147554022  MEMB      142             0.0000000000
     16540       142  SLPC      H12A          -11.8107967492       24.0524013126      -18.0707220968  MEMB      142             0.0000000000
     16541       142  SLPC      H12B          -11.0118867792       23.8061479521      -16.5421043699  MEMB      142             0.0000000000
     16542       142  SLPC      C11           -11.6570413546       25.7830726219      -16.9245181782  MEMB      142             0.0000000000
     16543       142  SLPC      H11A          -10.7375887253       26.0495957970      -17.4883383975  MEMB      142             0.0000000000
     16544       142  SLPC      H11B          -11.5674322271       26.1357771038      -15.8748083150  MEMB      142             0.0000000000
     16545       142  SLPC      P             -12.5569629623       28.1232789019      -17.7287078119  MEMB      142             0.0000000000
     16546       142  SLPC      O13           -12.3361987150       28.2300525155      -19.1691803331  MEMB      142             0.0000000000
     16547       142  SLPC      O14           -13.8332990521       28.7480907198      -17.2679979420  MEMB      142             0.0000000000
     16548       142  SLPC      O12           -12.7239289874       26.5298630937      -17.3811641252  MEMB      142             0.0000000000
     16549       142  SLPC      O11           -11.3045845604       28.5891577093      -16.8563893208  MEMB      142             0.0000000000
     16550       142  SLPC      C1            -11.4974346759       29.4728181627      -15.7877851564  MEMB      142             0.0000000000
     16551       142  SLPC      HA            -11.7457577964       30.5307784454      -16.0188198363  MEMB      142             0.0000000000
     16552       142  SLPC      HB            -12.2928882579       29.0013680612      -15.1719041336  MEMB      142             0.0000000000
     16553       142  SLPC      C2            -10.2405420642       29.5146017067      -14.8161280634  MEMB      142             0.0000000000
     16554       142  SLPC      HS             -9.3728218263       30.1276944351      -15.1409350770  MEMB      142             0.0000000000
     16555       142  SLPC      O21            -9.7195246655       28.2078307943      -14.5096262103  MEMB      142             0.0000000000
     16556       142  SLPC      C21            -8.9436539857       27.6708812219      -15.4089496435  MEMB      142             0.0000000000
     16557       142  SLPC      O22            -8.4633388265       28.2183224752      -16.4077528137  MEMB      142             0.0000000000
     16558       142  SLPC      C22            -8.6579235995       26.2429070224      -14.8939761524  MEMB      142             0.0000000000
     16559       142  SLPC      H2R            -9.5623959949       25.7195921672      -14.5166272485  MEMB      142             0.0000000000
     16560       142  SLPC      H2S            -8.3232644245       25.6155064346      -15.7476112296  MEMB      142             0.0000000000
     16561       142  SLPC      C3            -10.6840200017       30.1770422747      -13.4931969613  MEMB      142             0.0000000000
     16562       142  SLPC      HX            -11.0064546283       31.2180746083      -13.7090861644  MEMB      142             0.0000000000
     16563       142  SLPC      HY             -9.7820202032       30.2961924595      -12.8556074695  MEMB      142             0.0000000000
     16564       142  SLPC      O31           -11.6555311805       29.4074139225      -12.8013855620  MEMB      142             0.0000000000
     16565       142  SLPC      C31           -12.7261203731       30.1378834291      -12.3253896588  MEMB      142             0.0000000000
     16566       142  SLPC      O32           -12.8669831838       31.3014063114      -12.3326207678  MEMB      142             0.0000000000
     16567       142  SLPC      C32           -13.6381717150       29.0447195088      -11.7227389599  MEMB      142             0.0000000000
     16568       142  SLPC      H2X           -14.6033697243       29.3998060500      -11.3024679834  MEMB      142             0.0000000000
     16569       142  SLPC      H2Y           -13.0686781353       28.4281747138      -10.9948171133  MEMB      142             0.0000000000
     16570       142  SLPC      C23            -7.5414645844       26.1474859479      -13.8710807492  MEMB      142             0.0000000000
     16571       142  SLPC      H3R            -6.6603845805       26.7160727448      -14.2381339589  MEMB      142             0.0000000000
     16572       142  SLPC      H3S            -7.2546146126       25.0744448222      -13.8461734142  MEMB      142             0.0000000000
     16573       142  SLPC      C24            -8.1519780113       26.5680039662      -12.4907167960  MEMB      142             0.0000000000
     16574       142  SLPC      H4R            -9.1642530731       26.1151113645      -12.4235747233  MEMB      142             0.0000000000
     16575       142  SLPC      H4S            -8.3293254757       27.6639059741      -12.5339339813  MEMB      142             0.0000000000
     16576       142  SLPC      C25            -7.2697015889       26.4163918403      -11.1728933944  MEMB      142             0.0000000000
     16577       142  SLPC      H5R            -6.3389403975       26.9895975394      -11.3714863674  MEMB      142             0.0000000000
     16578       142  SLPC      H5S            -7.0938688527       25.3206430473      -11.1205638639  MEMB      142             0.0000000000
     16579       142  SLPC      C26            -7.8854153205       26.8795469500       -9.9292115258  MEMB      142             0.0000000000
     16580       142  SLPC      H6R            -7.8379857973       27.9724791635       -9.7353794661  MEMB      142             0.0000000000
     16581       142  SLPC      H6S            -7.3655831717       26.4394816479       -9.0514653103  MEMB      142             0.0000000000
     16582       142  SLPC      C27            -9.2825738535       26.3504200381       -9.6212459381  MEMB      142             0.0000000000
     16583       142  SLPC      H7R            -9.3618870993       25.4091483532      -10.2060859299  MEMB      142             0.0000000000
     16584       142  SLPC      H7S           -10.0240859402       27.0448016740      -10.0710404102  MEMB      142             0.0000000000
     16585       142  SLPC      C28            -9.6613239245       26.4161763149       -8.0984966794  MEMB      142             0.0000000000
     16586       142  SLPC      H8R            -8.8429308523       25.8256594987       -7.6339065114  MEMB      142             0.0000000000
     16587       142  SLPC      H8S           -10.6088499394       25.8362380670       -8.1121716745  MEMB      142             0.0000000000
     16588       142  SLPC      C29            -9.8815418829       27.7999389639       -7.6408092364  MEMB      142             0.0000000000
     16589       142  SLPC      H9R           -10.7748110506       28.2146263492       -8.1308136201  MEMB      142             0.0000000000
     16590       142  SLPC      C210           -9.1795259244       28.5931452013       -6.7899868948  MEMB      142             0.0000000000
     16591       142  SLPC      H10R           -9.4877440000       29.6449826982       -6.6970368958  MEMB      142             0.0000000000
     16592       142  SLPC      C211           -7.9320251973       28.2957239300       -6.0704129767  MEMB      142             0.0000000000
     16593       142  SLPC      H11R           -7.2535409398       29.1700607123       -5.9728672022  MEMB      142             0.0000000000
     16594       142  SLPC      H11S           -7.2906176145       27.7503878928       -6.7953445038  MEMB      142             0.0000000000
     16595       142  SLPC      C212           -8.0986063822       27.5701040237       -4.7641930879  MEMB      142             0.0000000000
     16596       142  SLPC      H12R           -7.5771042762       26.6079221918       -4.6535518005  MEMB      142             0.0000000000
     16597       142  SLPC      C213           -8.7347509308       28.1801056967       -3.7181256688  MEMB      142             0.0000000000
     16598       142  SLPC      H13R           -8.6377392213       27.7146136826       -2.7262052191  MEMB      142             0.0000000000
     16599       142  SLPC      C214           -9.3578801687       29.5931319736       -3.7813702690  MEMB      142             0.0000000000
     16600       142  SLPC      H14R          -10.4639823172       29.4929250322       -3.8099610775  MEMB      142             0.0000000000
     16601       142  SLPC      H14S           -8.9392438406       30.1525234630       -4.6451674275  MEMB      142             0.0000000000
     16602       142  SLPC      C215           -8.9371573163       30.3586791431       -2.5588572251  MEMB      142             0.0000000000
     16603       142  SLPC      H15R           -9.0937861302       31.4580713479       -2.5924006678  MEMB      142             0.0000000000
     16604       142  SLPC      H15S           -7.8864173182       30.1737600747       -2.2489034365  MEMB      142             0.0000000000
     16605       142  SLPC      C216           -9.7769840567       29.9328522429       -1.2784986272  MEMB      142             0.0000000000
     16606       142  SLPC      H16R           -9.6508119712       28.8491648063       -1.0686815327  MEMB      142             0.0000000000
     16607       142  SLPC      H16S          -10.8229099994       30.1237178199       -1.6008792931  MEMB      142             0.0000000000
     16608       142  SLPC      C217           -9.5822026340       30.7653360077        0.0239249574  MEMB      142             0.0000000000
     16609       142  SLPC      H17R          -10.3546826411       30.4806389081        0.7699427926  MEMB      142             0.0000000000
     16610       142  SLPC      H17S           -9.8156990889       31.8052553526       -0.2897121988  MEMB      142             0.0000000000
     16611       142  SLPC      C218           -8.2243426232       30.7664838890        0.6260859844  MEMB      142             0.0000000000
     16612       142  SLPC      H18R           -8.1934048560       31.6075161997        1.3513630452  MEMB      142             0.0000000000
     16613       142  SLPC      H18S           -7.3641063049       30.9993629219       -0.0373011666  MEMB      142             0.0000000000
     16614       142  SLPC      H18T           -8.0875252739       29.7973304332        1.1517685724  MEMB      142             0.0000000000
     16615       142  SLPC      C33           -14.1882520130       28.1221468591      -12.8953519062  MEMB      142             0.0000000000
     16616       142  SLPC      H3X           -13.3906909661       27.5032128953      -13.3591816337  MEMB      142             0.0000000000
     16617       142  SLPC      H3Y           -14.5509994357       28.7862293078      -13.7088197718  MEMB      142             0.0000000000
     16618       142  SLPC      C34           -15.3208841193       27.1389052158      -12.4820086482  MEMB      142             0.0000000000
     16619       142  SLPC      H4X           -15.7268609213       26.5579595217      -13.3375818125  MEMB      142             0.0000000000
     16620       142  SLPC      H4Y           -16.1663439372       27.7901490340      -12.1731386291  MEMB      142             0.0000000000
     16621       142  SLPC      C35           -14.9261555570       26.1460323164      -11.3654535371  MEMB      142             0.0000000000
     16622       142  SLPC      H5X           -14.4857884198       26.6673324558      -10.4887301031  MEMB      142             0.0000000000
     16623       142  SLPC      H5Y           -14.2873317436       25.3369077145      -11.7796305293  MEMB      142             0.0000000000
     16624       142  SLPC      C36           -16.1142503191       25.5431992864      -10.6390615454  MEMB      142             0.0000000000
     16625       142  SLPC      H6X           -16.5885174513       24.8877788560      -11.4005182914  MEMB      142             0.0000000000
     16626       142  SLPC      H6Y           -16.8787397940       26.2344237991      -10.2242295635  MEMB      142             0.0000000000
     16627       142  SLPC      C37           -15.6071462362       24.8000462529       -9.3779397681  MEMB      142             0.0000000000
     16628       142  SLPC      H7X           -14.6465245818       24.3576635161       -9.7182702827  MEMB      142             0.0000000000
     16629       142  SLPC      H7Y           -16.1649151920       23.9171700982       -8.9988032826  MEMB      142             0.0000000000
     16630       142  SLPC      C38           -15.3005900350       25.7333920680       -8.2385258916  MEMB      142             0.0000000000
     16631       142  SLPC      H8X           -16.2527151010       26.2600679344       -8.0140450235  MEMB      142             0.0000000000
     16632       142  SLPC      H8Y           -14.4543358740       26.4045817896       -8.4986780820  MEMB      142             0.0000000000
     16633       142  SLPC      C39           -14.5592767714       25.0721847119       -6.9944059854  MEMB      142             0.0000000000
     16634       142  SLPC      H9X           -15.2762028435       24.4534775720       -6.4134241531  MEMB      142             0.0000000000
     16635       142  SLPC      H9Y           -14.2340467340       25.9084879521       -6.3393151043  MEMB      142             0.0000000000
     16636       142  SLPC      C310          -13.2221935536       24.3093603257       -7.3814284008  MEMB      142             0.0000000000
     16637       142  SLPC      H10X          -12.4355382459       24.8939800426       -7.9046053147  MEMB      142             0.0000000000
     16638       142  SLPC      H10Y          -13.5634168686       23.5538865503       -8.1211231093  MEMB      142             0.0000000000
     16639       142  SLPC      C311          -12.6210257954       23.5685309225       -6.1614142772  MEMB      142             0.0000000000
     16640       142  SLPC      H11X          -11.7522610055       23.0551288127       -6.6261580496  MEMB      142             0.0000000000
     16641       142  SLPC      H11Y          -13.3096142969       22.8220033268       -5.7110108164  MEMB      142             0.0000000000
     16642       142  SLPC      C312          -12.0677677141       24.5961046386       -5.1750136268  MEMB      142             0.0000000000
     16643       142  SLPC      H12X          -12.7802980153       25.4045846076       -4.9048628402  MEMB      142             0.0000000000
     16644       142  SLPC      H12Y          -11.2150950455       25.0462363879       -5.7269655529  MEMB      142             0.0000000000
     16645       142  SLPC      C313          -11.4871706548       23.9127768723       -3.9330927546  MEMB      142             0.0000000000
     16646       142  SLPC      H13X          -10.7599033360       23.1941668320       -4.3678375453  MEMB      142             0.0000000000
     16647       142  SLPC      H13Y          -12.2152344118       23.1669416149       -3.5484187973  MEMB      142             0.0000000000
     16648       142  SLPC      C314          -11.0257301912       24.8468738898       -2.7915539535  MEMB      142             0.0000000000
     16649       142  SLPC      H14X          -10.4843482900       25.6531081412       -3.3311952768  MEMB      142             0.0000000000
     16650       142  SLPC      H14Y          -10.3606113150       24.2813763261       -2.1044217343  MEMB      142             0.0000000000
     16651       142  SLPC      C315          -12.1572379559       25.3621509664       -1.9539558590  MEMB      142             0.0000000000
     16652       142  SLPC      H15X          -12.4338117250       24.4970717489       -1.3140607335  MEMB      142             0.0000000000
     16653       142  SLPC      H15Y          -13.0535932944       25.6589558868       -2.5394251513  MEMB      142             0.0000000000
     16654       142  SLPC      C316          -11.6417669816       26.4628690619       -0.9853715139  MEMB      142             0.0000000000
     16655       142  SLPC      H16X          -11.0960563972       27.2661388059       -1.5250740490  MEMB      142             0.0000000000
     16656       142  SLPC      H16Y          -10.9969297790       25.7814918178       -0.3901996898  MEMB      142             0.0000000000
     16657       142  SLPC      C317          -12.8119725853       27.0901527951       -0.1421609143  MEMB      142             0.0000000000
     16658       142  SLPC      H17X          -13.1856187522       26.4423243221        0.6794398350  MEMB      142             0.0000000000
     16659       142  SLPC      H17Y          -13.6271366184       27.1143988156       -0.8966414121  MEMB      142             0.0000000000
     16660       142  SLPC      C318          -12.4017768358       28.4698854465        0.4700326181  MEMB      142             0.0000000000
     16661       142  SLPC      H18X          -12.7086944782       29.2759663726       -0.2302221619  MEMB      142             0.0000000000
     16662       142  SLPC      H18Y          -11.3104904507       28.3021250172        0.5936116289  MEMB      142             0.0000000000
     16663       142  SLPC      H18Z          -12.8927939614       28.6012199438        1.4579464984  MEMB      142             0.0000000000
     16664       143  OSM       N             -29.7268490175        7.3946809563      -21.6716662183  MEMB      143             0.0000000000
     16665       143  OSM       C15           -30.8360884913        6.5602738115      -22.2186720526  MEMB      143             0.0000000000
     16666       143  OSM       H15A          -30.5167579510        5.5306584582      -22.2844000437  MEMB      143             0.0000000000
     16667       143  OSM       H15B          -31.1907333186        6.8258091018      -23.2036179507  MEMB      143             0.0000000000
     16668       143  OSM       H15C          -31.6984440934        6.6870883971      -21.5809723635  MEMB      143             0.0000000000
     16669       143  OSM       C14           -30.0009604263        8.8962728407      -21.7331833625  MEMB      143             0.0000000000
     16670       143  OSM       H14A          -30.6683221080        9.3004207525      -20.9863950407  MEMB      143             0.0000000000
     16671       143  OSM       H14B          -30.3180084392        9.1387420223      -22.7367216262  MEMB      143             0.0000000000
     16672       143  OSM       H14C          -29.0693763409        9.4407274704      -21.7792304094  MEMB      143             0.0000000000
     16673       143  OSM       C13           -29.7166281017        7.1013857611      -20.2372269310  MEMB      143             0.0000000000
     16674       143  OSM       H13A          -30.6674778002        7.2603805006      -19.7503951085  MEMB      143             0.0000000000
     16675       143  OSM       H13B          -29.0296230700        7.6951737728      -19.6525560925  MEMB      143             0.0000000000
     16676       143  OSM       H13C          -29.4976885745        6.0528590565      -20.0991787065  MEMB      143             0.0000000000
     16677       143  OSM       C12           -28.3700420858        7.1197733803      -22.4025370297  MEMB      143             0.0000000000
     16678       143  OSM       H12A          -27.6702080127        7.9128649415      -22.1842756663  MEMB      143             0.0000000000
     16679       143  OSM       H12B          -28.4139434604        7.1794443306      -23.4799932614  MEMB      143             0.0000000000
     16680       143  OSM       C11           -27.6689601099        5.6996826905      -22.2591415949  MEMB      143             0.0000000000
     16681       143  OSM       H11A          -26.7689887040        5.7332246723      -22.9097161901  MEMB      143             0.0000000000
     16682       143  OSM       H11B          -28.4628324559        5.0085075997      -22.6146197699  MEMB      143             0.0000000000
     16683       143  OSM       P             -26.2906540078        6.3346877905      -20.1604087041  MEMB      143             0.0000000000
     16684       143  OSM       O13           -25.0904197612        5.5023795641      -19.7724980093  MEMB      143             0.0000000000
     16685       143  OSM       O14           -25.9801381422        7.6200897354      -20.7893842018  MEMB      143             0.0000000000
     16686       143  OSM       O11           -26.9707205185        6.7123796209      -18.8431564121  MEMB      143             0.0000000000
     16687       143  OSM       O12           -27.3903635389        5.4814731285      -20.9121254819  MEMB      143             0.0000000000
     16688       143  OSM       C1S           -27.3249047706        5.9715368609      -17.6484270971  MEMB      143             0.0000000000
     16689       143  OSM       H1S           -26.4900067439        5.3138715564      -17.3247871404  MEMB      143             0.0000000000
     16690       143  OSM       H1T           -28.2554364020        5.4020290498      -17.8584096799  MEMB      143             0.0000000000
     16691       143  OSM       NF            -27.7717813090        5.8775518727      -15.2569889428  MEMB      143             0.0000000000
     16692       143  OSM       HNF           -28.7180359753        5.6907121381      -15.0045960848  MEMB      143             0.0000000000
     16693       143  OSM       C2S           -27.6471900543        6.7972425875      -16.3322066622  MEMB      143             0.0000000000
     16694       143  OSM       H2S           -26.8157855085        7.5024030927      -16.1181130277  MEMB      143             0.0000000000
     16695       143  OSM       C3S           -28.9248306445        7.6335923686      -16.4712299780  MEMB      143             0.0000000000
     16696       143  OSM       H3S           -29.7660152087        6.9891652226      -16.8050609886  MEMB      143             0.0000000000
     16697       143  OSM       O3            -28.7025612777        8.6856047238      -17.3987583569  MEMB      143             0.0000000000
     16698       143  OSM       HO3           -27.7940505378        8.5929713401      -17.6947774854  MEMB      143             0.0000000000
     16699       143  OSM       C4S           -29.3202320759        8.3488027178      -15.1699536306  MEMB      143             0.0000000000
     16700       143  OSM       H4S           -28.5415069146        8.8968618095      -14.6193009514  MEMB      143             0.0000000000
     16701       143  OSM       C5S           -30.4007326079        8.0606012039      -14.4643757596  MEMB      143             0.0000000000
     16702       143  OSM       H5S           -31.2070644516        7.4235131324      -14.8567375427  MEMB      143             0.0000000000
     16703       143  OSM       C6S           -30.8245204913        8.6919421556      -13.1623643692  MEMB      143             0.0000000000
     16704       143  OSM       H6S           -31.7573200157        8.1399162008      -12.9184927023  MEMB      143             0.0000000000
     16705       143  OSM       H6T           -31.1905056894        9.7387399667      -13.2301160217  MEMB      143             0.0000000000
     16706       143  OSM       C7S           -29.7332382386        8.5301426131      -12.0482337348  MEMB      143             0.0000000000
     16707       143  OSM       H7S           -28.7268301578        8.9657650427      -12.2262706164  MEMB      143             0.0000000000
     16708       143  OSM       H7T           -29.6322300109        7.4484199813      -11.8158672377  MEMB      143             0.0000000000
     16709       143  OSM       C8S           -30.1364296946        9.3640411168      -10.7617098282  MEMB      143             0.0000000000
     16710       143  OSM       H8S           -31.1015743271        8.8625825369      -10.5350902665  MEMB      143             0.0000000000
     16711       143  OSM       H8T           -30.3004357064       10.4523829602      -10.9131541964  MEMB      143             0.0000000000
     16712       143  OSM       C9S           -29.2261724363        9.1434006723       -9.5415994737  MEMB      143             0.0000000000
     16713       143  OSM       H9S           -28.2858994557        9.7209222509       -9.4124644349  MEMB      143             0.0000000000
     16714       143  OSM       H9T           -28.8476034358        8.1141951092       -9.7197638563  MEMB      143             0.0000000000
     16715       143  OSM       C10S          -30.0576977784        9.2135489726       -8.1621864928  MEMB      143             0.0000000000
     16716       143  OSM       H10S          -30.6114735552        8.2521561724       -8.1040716764  MEMB      143             0.0000000000
     16717       143  OSM       H10T          -30.8216965890       10.0198278253       -8.1854541149  MEMB      143             0.0000000000
     16718       143  OSM       C11S          -29.1204799917        9.3631233687       -6.9065852520  MEMB      143             0.0000000000
     16719       143  OSM       H11S          -28.8574472449       10.4420590226       -6.8744543625  MEMB      143             0.0000000000
     16720       143  OSM       H11T          -28.1622782189        8.8056898792       -6.9803286851  MEMB      143             0.0000000000
     16721       143  OSM       C12S          -29.8297817157        9.0753671428       -5.5853323523  MEMB      143             0.0000000000
     16722       143  OSM       H12S          -30.0135845453        7.9797704089       -5.5996564541  MEMB      143             0.0000000000
     16723       143  OSM       H12T          -30.8738723616        9.4535459183       -5.6196294655  MEMB      143             0.0000000000
     16724       143  OSM       C13S          -29.1837341559        9.5356307279       -4.2864311805  MEMB      143             0.0000000000
     16725       143  OSM       H13S          -29.1313802007       10.6413432049       -4.3811937127  MEMB      143             0.0000000000
     16726       143  OSM       H13T          -28.1254107553        9.2249249264       -4.1532624381  MEMB      143             0.0000000000
     16727       143  OSM       C14S          -29.9977108347        9.2595344317       -2.9869815115  MEMB      143             0.0000000000
     16728       143  OSM       H14S          -31.0003231646        9.7138831139       -3.1375017216  MEMB      143             0.0000000000
     16729       143  OSM       H14T          -29.5738147061        9.7029483029       -2.0606888443  MEMB      143             0.0000000000
     16730       143  OSM       C15S          -30.1454053163        7.7937299136       -2.7417694856  MEMB      143             0.0000000000
     16731       143  OSM       H15S          -29.3703548775        7.1859269703       -3.2557671198  MEMB      143             0.0000000000
     16732       143  OSM       H15T          -31.0862879608        7.4754554145       -3.2395258507  MEMB      143             0.0000000000
     16733       143  OSM       C16S          -30.2942021971        7.4574213316       -1.2584368895  MEMB      143             0.0000000000
     16734       143  OSM       H16S          -31.2123732177        7.9975994822       -0.9430156984  MEMB      143             0.0000000000
     16735       143  OSM       H16T          -29.3706429563        7.8669493213       -0.7962183232  MEMB      143             0.0000000000
     16736       143  OSM       C17S          -30.5611829433        5.9988557995       -0.8585833727  MEMB      143             0.0000000000
     16737       143  OSM       H17S          -31.5424978767        5.7786475506       -1.3306545282  MEMB      143             0.0000000000
     16738       143  OSM       H17T          -30.5418714677        6.0264726658        0.2519050782  MEMB      143             0.0000000000
     16739       143  OSM       C18S          -29.4791569937        4.9935614257       -1.2738738624  MEMB      143             0.0000000000
     16740       143  OSM       H18S          -28.4803796441        5.4798361606       -1.2565012108  MEMB      143             0.0000000000
     16741       143  OSM       H18T          -29.7368692876        4.5166805097       -2.2436615525  MEMB      143             0.0000000000
     16742       143  OSM       H18U          -29.5166986283        4.1720653762       -0.5268424844  MEMB      143             0.0000000000
     16743       143  OSM       C1F           -26.8124861723        5.0097374908      -14.7953649562  MEMB      143             0.0000000000
     16744       143  OSM       OF            -25.6794044059        5.2256883232      -15.0912083655  MEMB      143             0.0000000000
     16745       143  OSM       C2F           -27.3321588685        3.8450755954      -14.1055609954  MEMB      143             0.0000000000
     16746       143  OSM       H2F           -27.3796316450        2.9854340658      -14.8077602412  MEMB      143             0.0000000000
     16747       143  OSM       H2G           -28.3737662266        4.0076196980      -13.7549124448  MEMB      143             0.0000000000
     16748       143  OSM       C3F           -26.5853794392        3.4742673216      -12.7719232282  MEMB      143             0.0000000000
     16749       143  OSM       H3F           -25.5013226724        3.2493636382      -12.8644442117  MEMB      143             0.0000000000
     16750       143  OSM       H3G           -27.1084261504        2.5469252060      -12.4544652282  MEMB      143             0.0000000000
     16751       143  OSM       C4F           -26.8666704617        4.4157268857      -11.5769215663  MEMB      143             0.0000000000
     16752       143  OSM       H4F           -27.9606230453        4.5579077185      -11.4451133191  MEMB      143             0.0000000000
     16753       143  OSM       H4G           -26.4299493228        5.3622151943      -11.9613110344  MEMB      143             0.0000000000
     16754       143  OSM       C5F           -26.3313169248        3.9647057646      -10.2410096599  MEMB      143             0.0000000000
     16755       143  OSM       H5F           -25.5322858108        3.2105000188      -10.4054600092  MEMB      143             0.0000000000
     16756       143  OSM       H5G           -27.0948054136        3.4115162876       -9.6533124723  MEMB      143             0.0000000000
     16757       143  OSM       C6F           -25.7625973973        5.1792833337       -9.3721406500  MEMB      143             0.0000000000
     16758       143  OSM       H6F           -26.6075913852        5.8820782869       -9.2097047281  MEMB      143             0.0000000000
     16759       143  OSM       H6G           -24.9625559826        5.6362391606       -9.9929838393  MEMB      143             0.0000000000
     16760       143  OSM       C7F           -25.1243229660        4.8022843245       -8.0943777998  MEMB      143             0.0000000000
     16761       143  OSM       H7F           -24.6438909526        5.6834648859       -7.6179040071  MEMB      143             0.0000000000
     16762       143  OSM       H7G           -24.2891563488        4.1081903043       -8.3290069294  MEMB      143             0.0000000000
     16763       143  OSM       C8F           -26.0486754945        4.1042922339       -7.0608515411  MEMB      143             0.0000000000
     16764       143  OSM       H8F           -25.3236776573        3.6973249133       -6.3239142306  MEMB      143             0.0000000000
     16765       143  OSM       H8G           -26.5590193749        3.2019669367       -7.4604499929  MEMB      143             0.0000000000
     16766       143  OSM       C9F           -26.9516791548        4.8951832443       -6.1313458812  MEMB      143             0.0000000000
     16767       143  OSM       H9F           -27.9842045628        4.8523816503       -6.5082534525  MEMB      143             0.0000000000
     16768       143  OSM       C10F          -26.5518019159        5.6002941836       -5.0436996660  MEMB      143             0.0000000000
     16769       143  OSM       H10F          -27.3712471985        5.9263496657       -4.3862826577  MEMB      143             0.0000000000
     16770       143  OSM       C11F          -25.1361842409        5.7664431452       -4.4768387328  MEMB      143             0.0000000000
     16771       143  OSM       H11F          -24.9858307015        6.8020998946       -4.1038369927  MEMB      143             0.0000000000
     16772       143  OSM       H11G          -24.4116995955        5.6787200447       -5.3145419238  MEMB      143             0.0000000000
     16773       143  OSM       C12F          -24.7726804609        4.5860879029       -3.6113158170  MEMB      143             0.0000000000
     16774       143  OSM       H12F          -23.7112187412        4.5533662248       -3.2848975163  MEMB      143             0.0000000000
     16775       143  OSM       H12G          -24.9472110227        3.7879616430       -4.3642139845  MEMB      143             0.0000000000
     16776       143  OSM       C13F          -25.6894609681        4.4237499095       -2.3618982151  MEMB      143             0.0000000000
     16777       143  OSM       H13F          -26.6809409330        4.0547356122       -2.7011867731  MEMB      143             0.0000000000
     16778       143  OSM       H13G          -25.8932872926        5.4567353392       -2.0073316972  MEMB      143             0.0000000000
     16779       143  OSM       C14F          -25.0274174665        3.5172515264       -1.3113982684  MEMB      143             0.0000000000
     16780       143  OSM       H14F          -24.1777685853        4.0709431649       -0.8576995670  MEMB      143             0.0000000000
     16781       143  OSM       H14G          -24.7968523952        2.4920460041       -1.6721125957  MEMB      143             0.0000000000
     16782       143  OSM       C15F          -25.9689648619        3.3543872329       -0.0692461760  MEMB      143             0.0000000000
     16783       143  OSM       H15F          -26.8397308208        2.7434726711       -0.3899814567  MEMB      143             0.0000000000
     16784       143  OSM       H15G          -26.3129362665        4.3421637046        0.3053229563  MEMB      143             0.0000000000
     16785       143  OSM       C16F          -25.3608733356        2.6009658690        1.1005911029  MEMB      143             0.0000000000
     16786       143  OSM       H16F          -24.9576538944        3.4163628798        1.7384480187  MEMB      143             0.0000000000
     16787       143  OSM       H16G          -24.5738662698        1.8890038927        0.7718797102  MEMB      143             0.0000000000
     16788       143  OSM       C17F          -26.2974400171        1.7181806292        1.8430964215  MEMB      143             0.0000000000
     16789       143  OSM       H17F          -25.8233936165        1.0278919281        2.5732349193  MEMB      143             0.0000000000
     16790       143  OSM       H17G          -26.7245563158        1.0168714907        1.0947265408  MEMB      143             0.0000000000
     16791       143  OSM       C18F          -27.4377932005        2.5588072941        2.4619081874  MEMB      143             0.0000000000
     16792       143  OSM       H18F          -28.1370222127        2.9498178347        1.6921602959  MEMB      143             0.0000000000
     16793       143  OSM       H18G          -27.1493353631        3.3648558665        3.1700024593  MEMB      143             0.0000000000
     16794       143  OSM       H18H          -28.1009001643        2.0037749312        3.1594387808  MEMB      143             0.0000000000
     16795       144  CHL1      C3              4.8572240315      -28.5005156412      -17.3414100000  MEMB      144             0.0000000000
     16796       144  CHL1      H3              3.7872767913      -28.7924946990      -17.2758500000  MEMB      144             0.0000000000
     16797       144  CHL1      O3              5.1721066019      -28.7932611588      -18.6585900000  MEMB      144             0.0000000000
     16798       144  CHL1      H3'             4.9083507644      -28.0878973996      -19.2539800000  MEMB      144             0.0000000000
     16799       144  CHL1      C4              5.1576561438      -26.9823389687      -17.0787000000  MEMB      144             0.0000000000
     16800       144  CHL1      H4A             6.2263956129      -26.7963930495      -17.3185600000  MEMB      144             0.0000000000
     16801       144  CHL1      H4B             4.4598680753      -26.4293070017      -17.7432100000  MEMB      144             0.0000000000
     16802       144  CHL1      C5              4.9527789263      -26.5802308097      -15.6416800000  MEMB      144             0.0000000000
     16803       144  CHL1      C6              4.1853451215      -25.5814443313      -15.2222400000  MEMB      144             0.0000000000
     16804       144  CHL1      H6              3.6160652184      -24.9590737948      -15.9283300000  MEMB      144             0.0000000000
     16805       144  CHL1      C7              3.9627241441      -25.2188568605      -13.7658200000  MEMB      144             0.0000000000
     16806       144  CHL1      H7A             4.0725790453      -24.1133412251      -13.7751300000  MEMB      144             0.0000000000
     16807       144  CHL1      H7B             2.9526204681      -25.3620107445      -13.3259000000  MEMB      144             0.0000000000
     16808       144  CHL1      C8              5.0320020819      -25.8502357934      -12.8198200000  MEMB      144             0.0000000000
     16809       144  CHL1      H8              5.9859093777      -25.2806995770      -12.8181400000  MEMB      144             0.0000000000
     16810       144  CHL1      C14             4.5139546697      -25.9899522361      -11.4698600000  MEMB      144             0.0000000000
     16811       144  CHL1      H14             3.6070093944      -26.6265146998      -11.5508600000  MEMB      144             0.0000000000
     16812       144  CHL1      C15             3.8713643827      -24.6687552882      -10.8875800000  MEMB      144             0.0000000000
     16813       144  CHL1      H15A            4.4317814984      -23.7112869538      -10.9468100000  MEMB      144             0.0000000000
     16814       144  CHL1      H15B            2.9154660504      -24.3458939209      -11.3527000000  MEMB      144             0.0000000000
     16815       144  CHL1      C16             3.5773427253      -25.1480843547       -9.4568400000  MEMB      144             0.0000000000
     16816       144  CHL1      H16A            4.0566384590      -24.4185924629       -8.7695000000  MEMB      144             0.0000000000
     16817       144  CHL1      H16B            2.4734694812      -25.2086712707       -9.3468100000  MEMB      144             0.0000000000
     16818       144  CHL1      C17             4.3296015434      -26.4717326256       -9.1474500000  MEMB      144             0.0000000000
     16819       144  CHL1      H17             3.5541339525      -27.2539773895       -9.2926300000  MEMB      144             0.0000000000
     16820       144  CHL1      C13             5.2635021696      -26.6420400951      -10.3704300000  MEMB      144             0.0000000000
     16821       144  CHL1      C18             6.5819054614      -25.8366347720      -10.1147000000  MEMB      144             0.0000000000
     16822       144  CHL1      H18A            7.2589869124      -26.3917693302       -9.4308100000  MEMB      144             0.0000000000
     16823       144  CHL1      H18B            7.1871374536      -25.6661084671      -11.0306300000  MEMB      144             0.0000000000
     16824       144  CHL1      H18C            6.3067310686      -24.9253197784       -9.5418800000  MEMB      144             0.0000000000
     16825       144  CHL1      C12             5.7001977750      -28.0920446643      -10.8091400000  MEMB      144             0.0000000000
     16826       144  CHL1      H12A            6.4140583039      -28.5546323223      -10.0944700000  MEMB      144             0.0000000000
     16827       144  CHL1      H12B            4.7521733409      -28.6580309599      -10.9325800000  MEMB      144             0.0000000000
     16828       144  CHL1      C11             6.3323454701      -27.9839346124      -12.1828400000  MEMB      144             0.0000000000
     16829       144  CHL1      H11A            7.3057170091      -27.4484535357      -12.1714800000  MEMB      144             0.0000000000
     16830       144  CHL1      H11B            6.6082635533      -29.0279379805      -12.4440500000  MEMB      144             0.0000000000
     16831       144  CHL1      C9              5.4224928182      -27.2250925870      -13.2116500000  MEMB      144             0.0000000000
     16832       144  CHL1      H9              4.4450832608      -27.7369636996      -13.0813300000  MEMB      144             0.0000000000
     16833       144  CHL1      C10             5.7818807347      -27.4708168299      -14.6929400000  MEMB      144             0.0000000000
     16834       144  CHL1      C19             7.3040947686      -27.2796720780      -14.8661600000  MEMB      144             0.0000000000
     16835       144  CHL1      H19A            7.6490202525      -26.4005130190      -14.2809900000  MEMB      144             0.0000000000
     16836       144  CHL1      H19B            7.8381726592      -28.1253277133      -14.3824900000  MEMB      144             0.0000000000
     16837       144  CHL1      H19C            7.6221932154      -27.1729674944      -15.9252900000  MEMB      144             0.0000000000
     16838       144  CHL1      C1              5.5213469324      -28.9784997588      -15.0134900000  MEMB      144             0.0000000000
     16839       144  CHL1      H1A             6.0137760424      -29.5695292617      -14.2119200000  MEMB      144             0.0000000000
     16840       144  CHL1      H1B             4.4402298282      -29.1817389324      -14.8579200000  MEMB      144             0.0000000000
     16841       144  CHL1      C2              5.7667261329      -29.3581005328      -16.4281500000  MEMB      144             0.0000000000
     16842       144  CHL1      H2A             5.5934320468      -30.4472765499      -16.5622700000  MEMB      144             0.0000000000
     16843       144  CHL1      H2B             6.7913360686      -29.1475952654      -16.8025500000  MEMB      144             0.0000000000
     16844       144  CHL1      C20             4.8838405704      -26.5738261558       -7.7292200000  MEMB      144             0.0000000000
     16845       144  CHL1      H20             5.6166513520      -25.7952416678       -7.4273700000  MEMB      144             0.0000000000
     16846       144  CHL1      C21             5.6309865152      -27.9001934938       -7.4379600000  MEMB      144             0.0000000000
     16847       144  CHL1      H21A            4.9776083801      -28.7559831609       -7.7118800000  MEMB      144             0.0000000000
     16848       144  CHL1      H21B            5.8261144782      -27.9692812941       -6.3464200000  MEMB      144             0.0000000000
     16849       144  CHL1      H21C            6.5866540651      -27.9872452487       -7.9978300000  MEMB      144             0.0000000000
     16850       144  CHL1      C22             3.7534333992      -26.4656237807       -6.7083100000  MEMB      144             0.0000000000
     16851       144  CHL1      H22A            3.3326253049      -25.4408295453       -6.7922000000  MEMB      144             0.0000000000
     16852       144  CHL1      H22B            3.0157430235      -27.2684016596       -6.9220000000  MEMB      144             0.0000000000
     16853       144  CHL1      C23             4.1450763904      -26.5204100045       -5.2276200000  MEMB      144             0.0000000000
     16854       144  CHL1      H23A            4.3677080685      -27.5955785316       -5.0580200000  MEMB      144             0.0000000000
     16855       144  CHL1      H23B            5.0277915363      -25.8619662924       -5.0807500000  MEMB      144             0.0000000000
     16856       144  CHL1      C24             3.0513345246      -25.9594736263       -4.3061900000  MEMB      144             0.0000000000
     16857       144  CHL1      H24A            2.9508640727      -24.8958064261       -4.6109100000  MEMB      144             0.0000000000
     16858       144  CHL1      H24B            2.1856039440      -26.5891983457       -4.6032700000  MEMB      144             0.0000000000
     16859       144  CHL1      C25             3.3490108314      -25.9314505081       -2.8139000000  MEMB      144             0.0000000000
     16860       144  CHL1      H25             4.1290415646      -25.1581709398       -2.6468400000  MEMB      144             0.0000000000
     16861       144  CHL1      C26             2.0198053797      -25.6270273658       -2.0614100000  MEMB      144             0.0000000000
     16862       144  CHL1      H26A            1.5472174830      -24.6671487139       -2.3607600000  MEMB      144             0.0000000000
     16863       144  CHL1      H26B            1.2779791817      -26.4444868480       -2.1870100000  MEMB      144             0.0000000000
     16864       144  CHL1      H26C            2.1908296587      -25.5607773206       -0.9656500000  MEMB      144             0.0000000000
     16865       144  CHL1      C27             3.9336958212      -27.2410343362       -2.3628900000  MEMB      144             0.0000000000
     16866       144  CHL1      H27A            4.0194551418      -27.2817525464       -1.2559500000  MEMB      144             0.0000000000
     16867       144  CHL1      H27B            3.1744612559      -28.0323238213       -2.5410900000  MEMB      144             0.0000000000
     16868       144  CHL1      H27C            4.9483453177      -27.5114543581       -2.7257600000  MEMB      144             0.0000000000
     16869       145  CHL1      C3              8.4029519429       28.6850884518      -17.3384250000  MEMB      145             0.0000000000
     16870       145  CHL1      H3              9.0812461286       29.5645219135      -17.3674250000  MEMB      145             0.0000000000
     16871       145  CHL1      O3              8.2820071971       28.1625037482      -18.6615750000  MEMB      145             0.0000000000
     16872       145  CHL1      H3'             9.1320532895       27.9129565808      -19.0313750000  MEMB      145             0.0000000000
     16873       145  CHL1      C4              9.0778122142       27.4364740771      -16.5871950000  MEMB      145             0.0000000000
     16874       145  CHL1      H4A             8.4747229520       26.5383018539      -16.8399450000  MEMB      145             0.0000000000
     16875       145  CHL1      H4B            10.0069686755       27.2267153521      -17.1590250000  MEMB      145             0.0000000000
     16876       145  CHL1      C5              9.1830803620       27.5993111404      -15.1287450000  MEMB      145             0.0000000000
     16877       145  CHL1      C6             10.3689622611       27.4737422109      -14.4853450000  MEMB      145             0.0000000000
     16878       145  CHL1      H6             11.2928455030       27.3435529571      -15.0679950000  MEMB      145             0.0000000000
     16879       145  CHL1      C7             10.4719747551       27.5142825918      -12.9609550000  MEMB      145             0.0000000000
     16880       145  CHL1      H7A            11.3196196311       26.8478927759      -12.6931050000  MEMB      145             0.0000000000
     16881       145  CHL1      H7B            10.8668073539       28.5327987585      -12.7583250000  MEMB      145             0.0000000000
     16882       145  CHL1      C8              9.1670620817       27.3108945160      -12.2042450000  MEMB      145             0.0000000000
     16883       145  CHL1      H8              8.9021579207       26.2827723956      -12.5315350000  MEMB      145             0.0000000000
     16884       145  CHL1      C14             9.2813603004       27.4299419776      -10.6537450000  MEMB      145             0.0000000000
     16885       145  CHL1      H14             9.6352966882       28.4564377261      -10.4184550000  MEMB      145             0.0000000000
     16886       145  CHL1      C15            10.1310766217       26.4046381642       -9.9562550000  MEMB      145             0.0000000000
     16887       145  CHL1      H15A            9.9536713893       25.4643225042      -10.5207450000  MEMB      145             0.0000000000
     16888       145  CHL1      H15B           11.1971386867       26.7153030288       -9.9197650000  MEMB      145             0.0000000000
     16889       145  CHL1      C16             9.5820263532       26.3382643204       -8.5198150000  MEMB      145             0.0000000000
     16890       145  CHL1      H16A            9.2693379027       25.2760653035       -8.4288450000  MEMB      145             0.0000000000
     16891       145  CHL1      H16B           10.2928313427       26.4689297402       -7.6760150000  MEMB      145             0.0000000000
     16892       145  CHL1      C17             8.3749269855       27.3385566648       -8.5100950000  MEMB      145             0.0000000000
     16893       145  CHL1      H17             8.7564261541       28.3140528485       -8.1397050000  MEMB      145             0.0000000000
     16894       145  CHL1      C13             7.9181112357       27.3769089265       -9.9870550000  MEMB      145             0.0000000000
     16895       145  CHL1      C18             7.2216614416       26.0015438308      -10.4472250000  MEMB      145             0.0000000000
     16896       145  CHL1      H18A            7.7200971563       25.1110169157      -10.0080850000  MEMB      145             0.0000000000
     16897       145  CHL1      H18B            6.1135170335       26.0011255367      -10.3675350000  MEMB      145             0.0000000000
     16898       145  CHL1      H18C            7.3354657841       25.8978572332      -11.5475050000  MEMB      145             0.0000000000
     16899       145  CHL1      C12             7.1746817037       28.6399748168      -10.4681550000  MEMB      145             0.0000000000
     16900       145  CHL1      H12A            6.2018054878       28.7117244427       -9.9364650000  MEMB      145             0.0000000000
     16901       145  CHL1      H12B            7.7361841168       29.5685691779      -10.2299350000  MEMB      145             0.0000000000
     16902       145  CHL1      C11             6.8808785745       28.4723800884      -11.9290150000  MEMB      145             0.0000000000
     16903       145  CHL1      H11A            6.1352518594       27.6732935526      -12.1285550000  MEMB      145             0.0000000000
     16904       145  CHL1      H11B            6.4773842083       29.4177343648      -12.3507150000  MEMB      145             0.0000000000
     16905       145  CHL1      C9              8.1302901476       28.3230990836      -12.7883250000  MEMB      145             0.0000000000
     16906       145  CHL1      H9              8.6064136042       29.3162004568      -12.9345450000  MEMB      145             0.0000000000
     16907       145  CHL1      C10             7.9056876304       27.9089673068      -14.3242650000  MEMB      145             0.0000000000
     16908       145  CHL1      C19             6.8635761785       26.7379588472      -14.4222850000  MEMB      145             0.0000000000
     16909       145  CHL1      H19A            5.9460418040       27.2783420014      -14.1053650000  MEMB      145             0.0000000000
     16910       145  CHL1      H19B            6.7135730223       26.5339464380      -15.5040450000  MEMB      145             0.0000000000
     16911       145  CHL1      H19C            7.1456699011       25.8767761945      -13.7795450000  MEMB      145             0.0000000000
     16912       145  CHL1      C1              7.3048964508       29.1810389136      -15.0781450000  MEMB      145             0.0000000000
     16913       145  CHL1      H1A             6.2997497537       29.3879038257      -14.6524650000  MEMB      145             0.0000000000
     16914       145  CHL1      H1B             7.8544755129       30.1148707075      -14.8326850000  MEMB      145             0.0000000000
     16915       145  CHL1      C2              7.0962709311       29.0963196036      -16.6217450000  MEMB      145             0.0000000000
     16916       145  CHL1      H2A             6.7658397292       30.0453370774      -17.0955550000  MEMB      145             0.0000000000
     16917       145  CHL1      H2B             6.2749005388       28.4036753608      -16.9044250000  MEMB      145             0.0000000000
     16918       145  CHL1      C20             7.1845650960       27.0005590708       -7.4454550000  MEMB      145             0.0000000000
     16919       145  CHL1      H20             6.6164203932       26.2384221303       -8.0205050000  MEMB      145             0.0000000000
     16920       145  CHL1      C21             6.3197357390       28.2065868028       -7.1631250000  MEMB      145             0.0000000000
     16921       145  CHL1      H21A            5.6675282035       28.5184670561       -8.0067350000  MEMB      145             0.0000000000
     16922       145  CHL1      H21B            6.8488218301       29.1165591428       -6.8076950000  MEMB      145             0.0000000000
     16923       145  CHL1      H21C            5.5397751447       27.9579037825       -6.4120350000  MEMB      145             0.0000000000
     16924       145  CHL1      C22             7.8206585834       26.4208245818       -6.1666150000  MEMB      145             0.0000000000
     16925       145  CHL1      H22A            8.5364209125       25.6270242726       -6.4697150000  MEMB      145             0.0000000000
     16926       145  CHL1      H22B            8.4804415314       27.1254012147       -5.6165350000  MEMB      145             0.0000000000
     16927       145  CHL1      C23             6.8339000752       25.8848534625       -5.1118850000  MEMB      145             0.0000000000
     16928       145  CHL1      H23A            6.3191975141       26.7898238436       -4.7240250000  MEMB      145             0.0000000000
     16929       145  CHL1      H23B            6.0323189423       25.2099172437       -5.4810150000  MEMB      145             0.0000000000
     16930       145  CHL1      C24             7.5219318403       25.2619378964       -3.9281950000  MEMB      145             0.0000000000
     16931       145  CHL1      H24A            8.5734082570       25.6155970882       -3.8678550000  MEMB      145             0.0000000000
     16932       145  CHL1      H24B            6.9797016072       25.4744126109       -2.9820650000  MEMB      145             0.0000000000
     16933       145  CHL1      C25             7.7998036269       23.7462441735       -4.0918850000  MEMB      145             0.0000000000
     16934       145  CHL1      H25             6.8018139391       23.2596412688       -4.1315250000  MEMB      145             0.0000000000
     16935       145  CHL1      C26             8.5616105234       23.2537438921       -5.3112550000  MEMB      145             0.0000000000
     16936       145  CHL1      H26A            9.4738017182       23.8795687189       -5.4140550000  MEMB      145             0.0000000000
     16937       145  CHL1      H26B            8.8509196178       22.1897017971       -5.1754550000  MEMB      145             0.0000000000
     16938       145  CHL1      H26C            8.0280215367       23.4319871435       -6.2692850000  MEMB      145             0.0000000000
     16939       145  CHL1      C27             8.5179606021       23.1375434064       -2.8451050000  MEMB      145             0.0000000000
     16940       145  CHL1      H27A            7.8670039370       23.1884715112       -1.9462250000  MEMB      145             0.0000000000
     16941       145  CHL1      H27B            8.7241381373       22.0568237978       -2.9995550000  MEMB      145             0.0000000000
     16942       145  CHL1      H27C            9.4784754208       23.6401195730       -2.6018750000  MEMB      145             0.0000000000
     16943       146  CHL1      C3             28.4327299367      -10.2627369583      -17.4378500000  MEMB      146             0.0000000000
     16944       146  CHL1      H3             28.5722567066      -11.3593090045      -17.5490700000  MEMB      146             0.0000000000
     16945       146  CHL1      O3             28.0792840633       -9.4700331617      -18.5621500000  MEMB      146             0.0000000000
     16946       146  CHL1      H3'            27.2150835077       -9.7293783707      -18.8900100000  MEMB      146             0.0000000000
     16947       146  CHL1      C4             27.4165149701       -9.9648984513      -16.2955600000  MEMB      146             0.0000000000
     16948       146  CHL1      H4A            27.3267421768       -8.8655044178      -16.1628800000  MEMB      146             0.0000000000
     16949       146  CHL1      H4B            26.4190306003      -10.4030121232      -16.5132800000  MEMB      146             0.0000000000
     16950       146  CHL1      C5             27.9847397394      -10.6335811579      -15.0406800000  MEMB      146             0.0000000000
     16951       146  CHL1      C6             27.2667735491      -11.4509651685      -14.3526300000  MEMB      146             0.0000000000
     16952       146  CHL1      H6             26.2185691568      -11.4469359819      -14.6861800000  MEMB      146             0.0000000000
     16953       146  CHL1      C7             27.7251696889      -12.2287703848      -13.1284300000  MEMB      146             0.0000000000
     16954       146  CHL1      H7A            26.8867693118      -12.4124175826      -12.4229700000  MEMB      146             0.0000000000
     16955       146  CHL1      H7B            28.2868370359      -13.1570886953      -13.3673600000  MEMB      146             0.0000000000
     16956       146  CHL1      C8             28.7808865392      -11.4146659902      -12.3064600000  MEMB      146             0.0000000000
     16957       146  CHL1      H8             28.2238148521      -10.5386504178      -11.9107500000  MEMB      146             0.0000000000
     16958       146  CHL1      C14            29.3423522776      -12.2214916789      -11.1829300000  MEMB      146             0.0000000000
     16959       146  CHL1      H14            29.5799620419      -13.2008641210      -11.6505700000  MEMB      146             0.0000000000
     16960       146  CHL1      C15            28.3747307064      -12.5154865160      -10.0891400000  MEMB      146             0.0000000000
     16961       146  CHL1      H15A           27.8596094791      -11.6605376906       -9.6012500000  MEMB      146             0.0000000000
     16962       146  CHL1      H15B           27.5600215229      -13.1790017180      -10.4500900000  MEMB      146             0.0000000000
     16963       146  CHL1      C16            29.2884204007      -13.1082522231       -9.0307400000  MEMB      146             0.0000000000
     16964       146  CHL1      H16A           28.9884797639      -12.6809230346       -8.0500600000  MEMB      146             0.0000000000
     16965       146  CHL1      H16B           29.1474291483      -14.2001355101       -9.1798200000  MEMB      146             0.0000000000
     16966       146  CHL1      C17            30.7563304574      -12.6709592555       -9.3170200000  MEMB      146             0.0000000000
     16967       146  CHL1      H17            31.2557429533      -13.5285326297       -9.8165100000  MEMB      146             0.0000000000
     16968       146  CHL1      C13            30.5179766902      -11.6404627343      -10.4283100000  MEMB      146             0.0000000000
     16969       146  CHL1      C18            30.2807600786      -10.2126375273       -9.9423000000  MEMB      146             0.0000000000
     16970       146  CHL1      H18A           29.2594018091      -10.1435786237       -9.5105800000  MEMB      146             0.0000000000
     16971       146  CHL1      H18B           31.0342647778       -9.9098536216       -9.1841000000  MEMB      146             0.0000000000
     16972       146  CHL1      H18C           30.1625742141       -9.4920178534      -10.7795900000  MEMB      146             0.0000000000
     16973       146  CHL1      C12            31.6051892480      -11.5800908687      -11.5342400000  MEMB      146             0.0000000000
     16974       146  CHL1      H12A           32.5812287536      -11.2759720709      -11.0992900000  MEMB      146             0.0000000000
     16975       146  CHL1      H12B           31.6575524044      -12.6212826543      -11.9183000000  MEMB      146             0.0000000000
     16976       146  CHL1      C11            31.1899033507      -10.6166119559      -12.7374900000  MEMB      146             0.0000000000
     16977       146  CHL1      H11A           31.3234300457       -9.5509941249      -12.4529700000  MEMB      146             0.0000000000
     16978       146  CHL1      H11B           32.0441017144      -10.8298500913      -13.4151300000  MEMB      146             0.0000000000
     16979       146  CHL1      C9             29.8425587908      -11.0832811383      -13.3807100000  MEMB      146             0.0000000000
     16980       146  CHL1      H9             30.0797203846      -12.0956168879      -13.7721800000  MEMB      146             0.0000000000
     16981       146  CHL1      C10            29.3504083498      -10.2974437401      -14.5869600000  MEMB      146             0.0000000000
     16982       146  CHL1      C19            29.4616502225       -8.8278512203      -14.1119000000  MEMB      146             0.0000000000
     16983       146  CHL1      H19A           30.5277879318       -8.6129031726      -13.8850600000  MEMB      146             0.0000000000
     16984       146  CHL1      H19B           29.1742450314       -8.0591079012      -14.8607500000  MEMB      146             0.0000000000
     16985       146  CHL1      H19C           28.8249591238       -8.6685973019      -13.2154800000  MEMB      146             0.0000000000
     16986       146  CHL1      C1             30.2588797772      -10.6033495298      -15.7735700000  MEMB      146             0.0000000000
     16987       146  CHL1      H1A            31.3004506033      -10.3385015638      -15.4919500000  MEMB      146             0.0000000000
     16988       146  CHL1      H1B            30.2932312800      -11.6896609080      -16.0039100000  MEMB      146             0.0000000000
     16989       146  CHL1      C2             29.8256761321       -9.7906476617      -17.0410300000  MEMB      146             0.0000000000
     16990       146  CHL1      H2A            30.5512686280      -10.0603666899      -17.8379400000  MEMB      146             0.0000000000
     16991       146  CHL1      H2B            30.0460959793       -8.7025143004      -16.9996700000  MEMB      146             0.0000000000
     16992       146  CHL1      C20            31.5502168045      -12.2446730789       -8.0667200000  MEMB      146             0.0000000000
     16993       146  CHL1      H20            30.9980511619      -11.5268561016       -7.4231400000  MEMB      146             0.0000000000
     16994       146  CHL1      C21            32.9496634334      -11.6166554431       -8.3792300000  MEMB      146             0.0000000000
     16995       146  CHL1      H21A           32.8452697403      -10.7138881631       -9.0183200000  MEMB      146             0.0000000000
     16996       146  CHL1      H21B           33.5097401434      -12.3707750154       -8.9724600000  MEMB      146             0.0000000000
     16997       146  CHL1      H21C           33.5217579862      -11.3605837678       -7.4619300000  MEMB      146             0.0000000000
     16998       146  CHL1      C22            31.7155261111      -13.4736858114       -7.1755600000  MEMB      146             0.0000000000
     16999       146  CHL1      H22A           31.1761119901      -14.3770742066       -7.5322700000  MEMB      146             0.0000000000
     17000       146  CHL1      H22B           32.7906588560      -13.7237671786       -7.3015500000  MEMB      146             0.0000000000
     17001       146  CHL1      C23            31.3612674075      -13.1772267652       -5.7299700000  MEMB      146             0.0000000000
     17002       146  CHL1      H23A           31.9937447164      -12.2960065331       -5.4896500000  MEMB      146             0.0000000000
     17003       146  CHL1      H23B           30.3275004671      -12.7832851328       -5.6277200000  MEMB      146             0.0000000000
     17004       146  CHL1      C24            31.6942573942      -14.2414233865       -4.6986900000  MEMB      146             0.0000000000
     17005       146  CHL1      H24A           31.1985593909      -15.1992963286       -4.9653100000  MEMB      146             0.0000000000
     17006       146  CHL1      H24B           32.8040602260      -14.2112412613       -4.7404400000  MEMB      146             0.0000000000
     17007       146  CHL1      C25            31.2665153698      -13.9391069712       -3.2329000000  MEMB      146             0.0000000000
     17008       146  CHL1      H25            30.1627371332      -13.8806701873       -3.1207400000  MEMB      146             0.0000000000
     17009       146  CHL1      C26            31.9373102733      -15.0313807297       -2.3443700000  MEMB      146             0.0000000000
     17010       146  CHL1      H26A           31.8034514908      -14.8629299225       -1.2544000000  MEMB      146             0.0000000000
     17011       146  CHL1      H26B           31.4587628677      -16.0046676102       -2.5852700000  MEMB      146             0.0000000000
     17012       146  CHL1      H26C           33.0329590318      -14.9318555103       -2.4991200000  MEMB      146             0.0000000000
     17013       146  CHL1      C27            31.9390909034      -12.6651571944       -2.6486600000  MEMB      146             0.0000000000
     17014       146  CHL1      H27A           31.6989635325      -11.7727858756       -3.2653600000  MEMB      146             0.0000000000
     17015       146  CHL1      H27B           31.6104093581      -12.5765787597       -1.5911000000  MEMB      146             0.0000000000
     17016       146  CHL1      H27C           33.0463206699      -12.7294068468       -2.5836100000  MEMB      146             0.0000000000
     17017       147  CHL1      C3            -18.4684267498      -23.4415845003      -17.3333300000  MEMB      147             0.0000000000
     17018       147  CHL1      H3            -17.5826380676      -24.1036046766      -17.2263600000  MEMB      147             0.0000000000
     17019       147  CHL1      O3            -18.8667948502      -23.8076798997      -18.6666700000  MEMB      147             0.0000000000
     17020       147  CHL1      H3'           -18.2121329411      -23.4137490254      -19.2479100000  MEMB      147             0.0000000000
     17021       147  CHL1      C4            -19.5839282175      -23.7966552278      -16.3251800000  MEMB      147             0.0000000000
     17022       147  CHL1      H4A           -20.5359637780      -23.3069038649      -16.6219500000  MEMB      147             0.0000000000
     17023       147  CHL1      H4B           -19.8274779948      -24.8788071619      -16.3880100000  MEMB      147             0.0000000000
     17024       147  CHL1      C5            -19.1998064845      -23.4603294019      -14.9627200000  MEMB      147             0.0000000000
     17025       147  CHL1      C6            -19.1563580096      -24.3923065002      -13.9592400000  MEMB      147             0.0000000000
     17026       147  CHL1      H6            -19.4965605379      -25.4190697737      -14.1592800000  MEMB      147             0.0000000000
     17027       147  CHL1      C7            -18.7304168816      -24.1280393338      -12.5780900000  MEMB      147             0.0000000000
     17028       147  CHL1      H7A           -19.3916730882      -24.6003818893      -11.8204900000  MEMB      147             0.0000000000
     17029       147  CHL1      H7B           -17.6603066058      -24.3548647168      -12.3838400000  MEMB      147             0.0000000000
     17030       147  CHL1      C8            -18.8482851673      -22.5714845405      -12.2966900000  MEMB      147             0.0000000000
     17031       147  CHL1      H8            -19.9255833252      -22.3189384664      -12.3965200000  MEMB      147             0.0000000000
     17032       147  CHL1      C14           -18.3670033503      -22.2235563974      -10.9700300000  MEMB      147             0.0000000000
     17033       147  CHL1      H14           -17.3099951009      -22.5647720588      -10.9450600000  MEMB      147             0.0000000000
     17034       147  CHL1      C15           -19.0997704019      -22.8550571923       -9.7813500000  MEMB      147             0.0000000000
     17035       147  CHL1      H15A          -20.1889320726      -22.6378650721       -9.8107800000  MEMB      147             0.0000000000
     17036       147  CHL1      H15B          -18.9483222142      -23.9531540261       -9.7066700000  MEMB      147             0.0000000000
     17037       147  CHL1      C16           -18.5973549182      -22.0418666408       -8.6064500000  MEMB      147             0.0000000000
     17038       147  CHL1      H16A          -19.5073313347      -21.7410399227       -8.0445200000  MEMB      147             0.0000000000
     17039       147  CHL1      H16B          -18.0323284282      -22.6698894486       -7.8848800000  MEMB      147             0.0000000000
     17040       147  CHL1      C17           -17.8564462714      -20.8651697020       -9.1398900000  MEMB      147             0.0000000000
     17041       147  CHL1      H17           -16.7757247965      -21.1035789943       -9.0422200000  MEMB      147             0.0000000000
     17042       147  CHL1      C13           -18.2391268745      -20.7599699790      -10.5813500000  MEMB      147             0.0000000000
     17043       147  CHL1      C18           -19.6868075185      -20.0851950021      -10.5759700000  MEMB      147             0.0000000000
     17044       147  CHL1      H18A          -19.5920793779      -18.9813387119      -10.4932000000  MEMB      147             0.0000000000
     17045       147  CHL1      H18B          -20.2871724081      -20.2789168952      -11.4905000000  MEMB      147             0.0000000000
     17046       147  CHL1      H18C          -20.3369317724      -20.4826802238       -9.7674900000  MEMB      147             0.0000000000
     17047       147  CHL1      C12           -17.2553190238      -20.1034002217      -11.6135300000  MEMB      147             0.0000000000
     17048       147  CHL1      H12A          -17.1562619725      -19.0164908673      -11.4058800000  MEMB      147             0.0000000000
     17049       147  CHL1      H12B          -16.2906067944      -20.5950835700      -11.3647200000  MEMB      147             0.0000000000
     17050       147  CHL1      C11           -17.7409105096      -20.3534940572      -13.0161500000  MEMB      147             0.0000000000
     17051       147  CHL1      H11A          -18.6399422069      -19.7147556902      -13.1506100000  MEMB      147             0.0000000000
     17052       147  CHL1      H11B          -16.9977619316      -19.8470436506      -13.6685000000  MEMB      147             0.0000000000
     17053       147  CHL1      C9            -18.0772644584      -21.7732642453      -13.3909500000  MEMB      147             0.0000000000
     17054       147  CHL1      H9            -17.1225416672      -22.3413018445      -13.4037400000  MEMB      147             0.0000000000
     17055       147  CHL1      C10           -18.7388981567      -22.0026538490      -14.7825400000  MEMB      147             0.0000000000
     17056       147  CHL1      C19           -19.9273995370      -20.9921546057      -14.8178900000  MEMB      147             0.0000000000
     17057       147  CHL1      H19A          -19.5117904442      -19.9647667188      -14.8957600000  MEMB      147             0.0000000000
     17058       147  CHL1      H19B          -20.5034872541      -21.1840849354      -15.7482700000  MEMB      147             0.0000000000
     17059       147  CHL1      H19C          -20.6421958067      -21.1618614154      -13.9844600000  MEMB      147             0.0000000000
     17060       147  CHL1      C1            -17.6708294314      -21.5662698615      -15.8346300000  MEMB      147             0.0000000000
     17061       147  CHL1      H1A           -17.4438869608      -20.4838215108      -15.7291700000  MEMB      147             0.0000000000
     17062       147  CHL1      H1B           -16.7306452975      -22.1109509403      -15.6028800000  MEMB      147             0.0000000000
     17063       147  CHL1      C2            -18.1506452161      -21.9371166008      -17.2512000000  MEMB      147             0.0000000000
     17064       147  CHL1      H2A           -17.4249063176      -21.6740884448      -18.0502200000  MEMB      147             0.0000000000
     17065       147  CHL1      H2B           -19.1088216514      -21.4461240459      -17.5253300000  MEMB      147             0.0000000000
     17066       147  CHL1      C20           -17.9507553136      -19.5810356342       -8.2378500000  MEMB      147             0.0000000000
     17067       147  CHL1      H20           -19.0383687963      -19.4906207297       -8.0298800000  MEMB      147             0.0000000000
     17068       147  CHL1      C21           -17.3773766036      -18.2976757924       -8.8047900000  MEMB      147             0.0000000000
     17069       147  CHL1      H21A          -17.2849099252      -17.5708311491       -7.9696500000  MEMB      147             0.0000000000
     17070       147  CHL1      H21B          -17.9338442313      -17.7425002925       -9.5899300000  MEMB      147             0.0000000000
     17071       147  CHL1      H21C          -16.3527346813      -18.4946769130       -9.1863800000  MEMB      147             0.0000000000
     17072       147  CHL1      C22           -17.4892840781      -19.7698973483       -6.7415000000  MEMB      147             0.0000000000
     17073       147  CHL1      H22A          -17.7443112164      -20.8327145110       -6.5422300000  MEMB      147             0.0000000000
     17074       147  CHL1      H22B          -16.3857584962      -19.7102710011       -6.6275300000  MEMB      147             0.0000000000
     17075       147  CHL1      C23           -18.2515875456      -18.8738061153       -5.7850600000  MEMB      147             0.0000000000
     17076       147  CHL1      H23A          -17.8311564344      -17.8619884127       -5.9688300000  MEMB      147             0.0000000000
     17077       147  CHL1      H23B          -19.3221228975      -18.9116878260       -6.0797500000  MEMB      147             0.0000000000
     17078       147  CHL1      C24           -18.0631913849      -19.2225071740       -4.2702800000  MEMB      147             0.0000000000
     17079       147  CHL1      H24A          -16.9825834464      -19.1862436716       -4.0147400000  MEMB      147             0.0000000000
     17080       147  CHL1      H24B          -18.5774664081      -18.4229282391       -3.6953800000  MEMB      147             0.0000000000
     17081       147  CHL1      C25           -18.7501331991      -20.5016648422       -3.8879300000  MEMB      147             0.0000000000
     17082       147  CHL1      H25           -18.3832401290      -21.3455402340       -4.5104900000  MEMB      147             0.0000000000
     17083       147  CHL1      C26           -18.5821880666      -20.9360864815       -2.5032500000  MEMB      147             0.0000000000
     17084       147  CHL1      H26A          -19.0690021890      -20.1719822732       -1.8602300000  MEMB      147             0.0000000000
     17085       147  CHL1      H26B          -18.9998960448      -21.9306203811       -2.2372800000  MEMB      147             0.0000000000
     17086       147  CHL1      H26C          -17.4920179380      -20.9454664301       -2.2892900000  MEMB      147             0.0000000000
     17087       147  CHL1      C27           -20.3062422548      -20.3355368515       -4.1019100000  MEMB      147             0.0000000000
     17088       147  CHL1      H27A          -20.9272018635      -21.1490612113       -3.6695800000  MEMB      147             0.0000000000
     17089       147  CHL1      H27B          -20.7254262258      -19.3669057229       -3.7549700000  MEMB      147             0.0000000000
     17090       147  CHL1      H27C          -20.5287683873      -20.4495188112       -5.1844100000  MEMB      147             0.0000000000
     17091       148  SAPE      N              -0.5272566772       28.7382203940      -22.3121798814  MEMB      148             0.0000000000
     17092       148  SAPE      HN1            -1.2331571135       28.0463408973      -22.6356107011  MEMB      148             0.0000000000
     17093       148  SAPE      HN2            -1.1578492211       29.4561347902      -21.9016289519  MEMB      148             0.0000000000
     17094       148  SAPE      HN3            -0.0328883623       29.2083726954      -23.0971362243  MEMB      148             0.0000000000
     17095       148  SAPE      C12             0.3075261069       28.0607393513      -21.2678008493  MEMB      148             0.0000000000
     17096       148  SAPE      H12A            1.0090002953       27.3929750264      -21.8121776267  MEMB      148             0.0000000000
     17097       148  SAPE      H12B           -0.3565437891       27.4888529154      -20.5849551678  MEMB      148             0.0000000000
     17098       148  SAPE      C11             1.2309008775       29.0533736096      -20.4217406000  MEMB      148             0.0000000000
     17099       148  SAPE      H11A            1.9110734664       29.4813519626      -21.1888916110  MEMB      148             0.0000000000
     17100       148  SAPE      H11B            1.7728305899       28.3875222163      -19.7165632069  MEMB      148             0.0000000000
     17101       148  SAPE      P               1.0421846900       31.3181502739      -19.2063613176  MEMB      148             0.0000000000
     17102       148  SAPE      O13             1.9646115550       30.8441984946      -18.1519406151  MEMB      148             0.0000000000
     17103       148  SAPE      O14             1.5121183628       32.2241076978      -20.2527014508  MEMB      148             0.0000000000
     17104       148  SAPE      O12             0.3108337157       30.0892851537      -19.8788776167  MEMB      148             0.0000000000
     17105       148  SAPE      O11            -0.1411605973       32.0832754465      -18.5083976528  MEMB      148             0.0000000000
     17106       148  SAPE      C1             -1.3099899267       32.6521812783      -19.1398542892  MEMB      148             0.0000000000
     17107       148  SAPE      HA             -1.0604173033       33.7319831183      -19.0619917350  MEMB      148             0.0000000000
     17108       148  SAPE      HB             -1.4816417810       32.2939143922      -20.1774001458  MEMB      148             0.0000000000
     17109       148  SAPE      C2             -2.6598011993       32.4157579699      -18.3987644820  MEMB      148             0.0000000000
     17110       148  SAPE      HS             -3.3409849619       33.2595451589      -18.6402859749  MEMB      148             0.0000000000
     17111       148  SAPE      O21            -2.3751254239       32.3509591593      -16.9949497527  MEMB      148             0.0000000000
     17112       148  SAPE      C21            -2.3127129486       33.5364309165      -16.3084142480  MEMB      148             0.0000000000
     17113       148  SAPE      O22            -2.4250075329       34.6672032318      -16.7955181522  MEMB      148             0.0000000000
     17114       148  SAPE      C22            -2.1374888742       33.1942192932      -14.7850315049  MEMB      148             0.0000000000
     17115       148  SAPE      H2R            -3.1292965512       33.1013697452      -14.2930787136  MEMB      148             0.0000000000
     17116       148  SAPE      H2S            -1.4351737401       32.3416126347      -14.6661350407  MEMB      148             0.0000000000
     17117       148  SAPE      C3             -3.2606943053       31.1048287485      -18.8560089012  MEMB      148             0.0000000000
     17118       148  SAPE      HX             -3.4460780289       31.1407875362      -19.9508426536  MEMB      148             0.0000000000
     17119       148  SAPE      HY             -4.2300686872       30.8639666268      -18.3695736520  MEMB      148             0.0000000000
     17120       148  SAPE      O31            -2.3056721064       30.0170156824      -18.6379825368  MEMB      148             0.0000000000
     17121       148  SAPE      C31            -2.4098638205       29.2957606996      -17.4803011285  MEMB      148             0.0000000000
     17122       148  SAPE      O32            -3.2063608546       29.5375302872      -16.6099024444  MEMB      148             0.0000000000
     17123       148  SAPE      C32            -1.3523650540       28.2837076752      -17.5151989829  MEMB      148             0.0000000000
     17124       148  SAPE      H2X            -0.5004342689       28.5665091220      -18.1698424701  MEMB      148             0.0000000000
     17125       148  SAPE      H2Y            -1.6295632789       27.3047877114      -17.9615148599  MEMB      148             0.0000000000
     17126       148  SAPE      C23            -1.4674772651       34.4216221385      -14.0525106993  MEMB      148             0.0000000000
     17127       148  SAPE      H3R            -2.0354300436       35.3441431439      -14.2988964255  MEMB      148             0.0000000000
     17128       148  SAPE      H3S            -0.4549346423       34.5420310641      -14.4936230246  MEMB      148             0.0000000000
     17129       148  SAPE      C24            -1.4177812135       34.3188769025      -12.5420508010  MEMB      148             0.0000000000
     17130       148  SAPE      H4R            -0.8428767435       35.2164722812      -12.2287954535  MEMB      148             0.0000000000
     17131       148  SAPE      H4S            -0.7823855904       33.4875282522      -12.1686175829  MEMB      148             0.0000000000
     17132       148  SAPE      C25            -2.7193272598       34.3851949630      -11.8950277562  MEMB      148             0.0000000000
     17133       148  SAPE      H5R            -3.0941927458       35.3989158676      -11.6904653440  MEMB      148             0.0000000000
     17134       148  SAPE      C26            -3.5022643173       33.4265867980      -11.4365817475  MEMB      148             0.0000000000
     17135       148  SAPE      H6R            -4.4944217482       33.7157915504      -11.0597735304  MEMB      148             0.0000000000
     17136       148  SAPE      C27            -3.1383179476       31.9175421070      -11.4806790710  MEMB      148             0.0000000000
     17137       148  SAPE      H7R            -2.9669126803       31.6971366344      -10.4053355408  MEMB      148             0.0000000000
     17138       148  SAPE      H7S            -2.1627484350       31.6164825856      -11.9187973465  MEMB      148             0.0000000000
     17139       148  SAPE      C28            -4.1349012398       30.9647261297      -11.9866263434  MEMB      148             0.0000000000
     17140       148  SAPE      H8R            -4.1748336159       30.7664739236      -13.0678765573  MEMB      148             0.0000000000
     17141       148  SAPE      C29            -4.9816089614       30.3030366005      -11.1440269564  MEMB      148             0.0000000000
     17142       148  SAPE      H9R            -5.5841125399       29.4744938227      -11.5446597701  MEMB      148             0.0000000000
     17143       148  SAPE      C210           -4.9716813949       30.4278920832       -9.6040781809  MEMB      148             0.0000000000
     17144       148  SAPE      H10R           -3.9387533574       30.1083432216       -9.3485990320  MEMB      148             0.0000000000
     17145       148  SAPE      H10S           -5.5732015588       29.6943072649       -9.0258498019  MEMB      148             0.0000000000
     17146       148  SAPE      C211           -5.2750270731       31.7840607365       -8.9624607740  MEMB      148             0.0000000000
     17147       148  SAPE      H11R           -5.9553379919       32.4061581536       -9.5626034797  MEMB      148             0.0000000000
     17148       148  SAPE      C212           -4.7260698410       32.3919417665       -7.8652830149  MEMB      148             0.0000000000
     17149       148  SAPE      H12R           -5.2796240829       33.2725913976       -7.5074648011  MEMB      148             0.0000000000
     17150       148  SAPE      C213           -3.6186113577       31.7670151467       -7.0312632059  MEMB      148             0.0000000000
     17151       148  SAPE      H13R           -3.2503721349       30.9045750677       -7.6270133663  MEMB      148             0.0000000000
     17152       148  SAPE      H13S           -4.1210021208       31.3430238828       -6.1356318268  MEMB      148             0.0000000000
     17153       148  SAPE      C214           -2.6338593447       32.8481463703       -6.8492131984  MEMB      148             0.0000000000
     17154       148  SAPE      H14R           -2.4197708269       33.2939609613       -7.8317686049  MEMB      148             0.0000000000
     17155       148  SAPE      C215           -2.0627020152       33.2756380395       -5.7167469246  MEMB      148             0.0000000000
     17156       148  SAPE      H15R           -1.2848903221       34.0496920319       -5.7932284669  MEMB      148             0.0000000000
     17157       148  SAPE      C216           -2.2955375490       32.6932673561       -4.3393629187  MEMB      148             0.0000000000
     17158       148  SAPE      H16R           -1.3826654658       32.8968381350       -3.7397421135  MEMB      148             0.0000000000
     17159       148  SAPE      H16S           -2.2403126437       31.5874279101       -4.4309610623  MEMB      148             0.0000000000
     17160       148  SAPE      C217           -3.6127666929       33.1960858490       -3.7389000445  MEMB      148             0.0000000000
     17161       148  SAPE      H17R           -4.3610974902       32.7161189759       -4.4051989684  MEMB      148             0.0000000000
     17162       148  SAPE      H17S           -3.6122052699       34.3060377676       -3.6906601449  MEMB      148             0.0000000000
     17163       148  SAPE      C218           -3.8320243957       32.7755555367       -2.2202274080  MEMB      148             0.0000000000
     17164       148  SAPE      H18R           -4.8625547969       33.1297017941       -2.0036437880  MEMB      148             0.0000000000
     17165       148  SAPE      H18S           -2.9866818879       33.2048504763       -1.6410716354  MEMB      148             0.0000000000
     17166       148  SAPE      C219           -3.8535337778       31.3098530511       -1.9079678519  MEMB      148             0.0000000000
     17167       148  SAPE      H19R           -2.8515004077       30.9195747281       -2.1871315831  MEMB      148             0.0000000000
     17168       148  SAPE      H19S           -4.5380055847       30.6908702070       -2.5265787156  MEMB      148             0.0000000000
     17169       148  SAPE      C220           -4.0397776582       30.9293398347       -0.4500995607  MEMB      148             0.0000000000
     17170       148  SAPE      H20R           -4.9440487853       31.4616084287       -0.0849886338  MEMB      148             0.0000000000
     17171       148  SAPE      H20S           -3.1420474140       31.2643731073        0.1121772527  MEMB      148             0.0000000000
     17172       148  SAPE      H20T           -4.2092830949       29.8632138249       -0.1874882712  MEMB      148             0.0000000000
     17173       148  SAPE      C33            -0.9709230160       27.9682774977      -15.9940452908  MEMB      148             0.0000000000
     17174       148  SAPE      H3X            -0.1562467489       27.2129494481      -15.9838925644  MEMB      148             0.0000000000
     17175       148  SAPE      H3Y            -1.8300504981       27.5298161362      -15.4427079999  MEMB      148             0.0000000000
     17176       148  SAPE      C34            -0.3492347515       29.1961059017      -15.2111276950  MEMB      148             0.0000000000
     17177       148  SAPE      H4X            -1.2671540225       29.8106540419      -15.0924852000  MEMB      148             0.0000000000
     17178       148  SAPE      H4Y             0.3473879690       29.6214899580      -15.9648423565  MEMB      148             0.0000000000
     17179       148  SAPE      C35             0.3988302458       28.9672820966      -13.9239425273  MEMB      148             0.0000000000
     17180       148  SAPE      H5X             1.2012915908       28.2064034455      -14.0309045410  MEMB      148             0.0000000000
     17181       148  SAPE      H5Y            -0.3689568105       28.6841274432      -13.1725125065  MEMB      148             0.0000000000
     17182       148  SAPE      C36             1.0512912577       30.2929574100      -13.5621391410  MEMB      148             0.0000000000
     17183       148  SAPE      H6X             0.2344684267       31.0373969829      -13.4484236614  MEMB      148             0.0000000000
     17184       148  SAPE      H6Y             1.7379520736       30.6210972792      -14.3715478693  MEMB      148             0.0000000000
     17185       148  SAPE      C37             1.8443293155       30.3442463641      -12.2236106686  MEMB      148             0.0000000000
     17186       148  SAPE      H7X             2.6536688221       29.5838344471      -12.1909883525  MEMB      148             0.0000000000
     17187       148  SAPE      H7Y             1.0943914912       30.2202087974      -11.4133461763  MEMB      148             0.0000000000
     17188       148  SAPE      C38             2.5613601827       31.6403989002      -12.0635377601  MEMB      148             0.0000000000
     17189       148  SAPE      H8X             1.8993610289       32.5326187096      -12.0588473550  MEMB      148             0.0000000000
     17190       148  SAPE      H8Y             3.2974162790       31.7393685224      -12.8898227781  MEMB      148             0.0000000000
     17191       148  SAPE      C39             3.2971761698       31.6527030295      -10.6742384514  MEMB      148             0.0000000000
     17192       148  SAPE      H9X             4.0545162144       32.4632936839      -10.7350632411  MEMB      148             0.0000000000
     17193       148  SAPE      H9Y             3.8994020546       30.7198501995      -10.6364186258  MEMB      148             0.0000000000
     17194       148  SAPE      C310            2.4490665937       31.9949007221       -9.4248211510  MEMB      148             0.0000000000
     17195       148  SAPE      H10X            1.7029885200       32.6859557129       -9.8721822548  MEMB      148             0.0000000000
     17196       148  SAPE      H10Y            2.9778106301       32.5535911077       -8.6231885220  MEMB      148             0.0000000000
     17197       148  SAPE      C311            1.6544152865       30.8459894352       -8.7845773812  MEMB      148             0.0000000000
     17198       148  SAPE      H11X            2.2231456222       29.8942219426       -8.8553288569  MEMB      148             0.0000000000
     17199       148  SAPE      H11Y            0.7025622712       30.6792495500       -9.3327515099  MEMB      148             0.0000000000
     17200       148  SAPE      C312            1.0910922682       31.2394411020       -7.4273080715  MEMB      148             0.0000000000
     17201       148  SAPE      H12X            0.3339043198       30.4567516729       -7.2073436265  MEMB      148             0.0000000000
     17202       148  SAPE      H12Y            0.5390355596       32.1769185345       -7.6524535552  MEMB      148             0.0000000000
     17203       148  SAPE      C313            2.0623890281       31.3880638023       -6.1960634099  MEMB      148             0.0000000000
     17204       148  SAPE      H13X            2.8152799534       32.1890854977       -6.3568133954  MEMB      148             0.0000000000
     17205       148  SAPE      H13Y            2.6591016318       30.4533146259       -6.2631395104  MEMB      148             0.0000000000
     17206       148  SAPE      C314            1.5807830952       31.6270875598       -4.7600856355  MEMB      148             0.0000000000
     17207       148  SAPE      H14X            0.6785152792       32.2418867203       -4.5545227160  MEMB      148             0.0000000000
     17208       148  SAPE      H14Y            2.4369032723       32.1342600358       -4.2659650414  MEMB      148             0.0000000000
     17209       148  SAPE      C315            1.3274004098       30.2532691532       -4.0800759110  MEMB      148             0.0000000000
     17210       148  SAPE      H15X            2.2872893574       29.7622299903       -3.8120929008  MEMB      148             0.0000000000
     17211       148  SAPE      H15Y            0.7161552196       29.5182139115       -4.6461090970  MEMB      148             0.0000000000
     17212       148  SAPE      C316            0.5139670839       30.4681773718       -2.7107363739  MEMB      148             0.0000000000
     17213       148  SAPE      H16X            0.3393917543       29.4391612169       -2.3299874063  MEMB      148             0.0000000000
     17214       148  SAPE      H16Y           -0.4627862301       30.9774711110       -2.8552834544  MEMB      148             0.0000000000
     17215       148  SAPE      C317            1.3614467601       31.3940047032       -1.7242623969  MEMB      148             0.0000000000
     17216       148  SAPE      H17X            1.6209701803       32.2953164088       -2.3197495229  MEMB      148             0.0000000000
     17217       148  SAPE      H17Y            2.3503926322       30.9361496673       -1.5082169762  MEMB      148             0.0000000000
     17218       148  SAPE      C318            0.5690024586       31.8300541488       -0.4888664331  MEMB      148             0.0000000000
     17219       148  SAPE      H18X            0.2668875646       30.9927357491        0.1759246785  MEMB      148             0.0000000000
     17220       148  SAPE      H18Y           -0.3924690455       32.3530537049       -0.6795621559  MEMB      148             0.0000000000
     17221       148  SAPE      H18Z            1.2046930325       32.6032873847       -0.0068608659  MEMB      148             0.0000000000
     17222       149  CHL1      C3             28.6119055397        9.7276967420      -17.3110900000  MEMB      149             0.0000000000
     17223       149  CHL1      H3             27.5323587519        9.8917425657      -17.1061900000  MEMB      149             0.0000000000
     17224       149  CHL1      O3             28.9113372603        9.8804008380      -18.6889100000  MEMB      149             0.0000000000
     17225       149  CHL1      H3'            29.8677325228        9.8019090279      -18.6616200000  MEMB      149             0.0000000000
     17226       149  CHL1      C4             29.4691558099       10.7196841847      -16.5818000000  MEMB      149             0.0000000000
     17227       149  CHL1      H4A            30.4967532823       10.4582812764      -16.9135200000  MEMB      149             0.0000000000
     17228       149  CHL1      H4B            29.3034706846       11.7767906403      -16.8807800000  MEMB      149             0.0000000000
     17229       149  CHL1      C5             29.3260090864       10.5408861622      -15.1055600000  MEMB      149             0.0000000000
     17230       149  CHL1      C6             29.1638454279       11.6399419894      -14.3302100000  MEMB      149             0.0000000000
     17231       149  CHL1      H6             29.0994102325       12.5836018048      -14.8917800000  MEMB      149             0.0000000000
     17232       149  CHL1      C7             28.8497365341       11.5691811658      -12.8608000000  MEMB      149             0.0000000000
     17233       149  CHL1      H7A            29.2838172680       12.4541250583      -12.3481800000  MEMB      149             0.0000000000
     17234       149  CHL1      H7B            27.7388201893       11.5745189729      -12.8486200000  MEMB      149             0.0000000000
     17235       149  CHL1      C8             29.2542348669       10.2301727904      -12.1634100000  MEMB      149             0.0000000000
     17236       149  CHL1      H8             30.3534314563       10.3277234264      -12.2921300000  MEMB      149             0.0000000000
     17237       149  CHL1      C14            28.6679208713       10.1380453729      -10.7659000000  MEMB      149             0.0000000000
     17238       149  CHL1      H14            27.5624297010       10.0275004053      -10.7645200000  MEMB      149             0.0000000000
     17239       149  CHL1      C15            29.1308169830       11.1955734005       -9.7465500000  MEMB      149             0.0000000000
     17240       149  CHL1      H15A           30.2008950606       11.3693167840       -9.9895800000  MEMB      149             0.0000000000
     17241       149  CHL1      H15B           28.4405727890       12.0549489633       -9.8856900000  MEMB      149             0.0000000000
     17242       149  CHL1      C16            28.7333962138       10.5605996332       -8.3773100000  MEMB      149             0.0000000000
     17243       149  CHL1      H16A           29.6154457076       10.7687103945       -7.7346700000  MEMB      149             0.0000000000
     17244       149  CHL1      H16B           27.8506336712       10.9945410384       -7.8608300000  MEMB      149             0.0000000000
     17245       149  CHL1      C17            28.5267834031        9.0384570545       -8.5951800000  MEMB      149             0.0000000000
     17246       149  CHL1      H17            27.4188537570        8.9562811940       -8.5867700000  MEMB      149             0.0000000000
     17247       149  CHL1      C13            28.9994946292        8.7760279821      -10.0674700000  MEMB      149             0.0000000000
     17248       149  CHL1      C18            30.5159579207        8.6140038852       -9.9602900000  MEMB      149             0.0000000000
     17249       149  CHL1      H18A           31.0174252970        9.3376145188       -9.2826200000  MEMB      149             0.0000000000
     17250       149  CHL1      H18B           30.7210028294        7.6280949713       -9.4909600000  MEMB      149             0.0000000000
     17251       149  CHL1      H18C           30.9842144254        8.4475736563      -10.9539500000  MEMB      149             0.0000000000
     17252       149  CHL1      C12            28.3371774797        7.6531984982      -10.8903100000  MEMB      149             0.0000000000
     17253       149  CHL1      H12A           28.4493719102        6.6660501848      -10.3930500000  MEMB      149             0.0000000000
     17254       149  CHL1      H12B           27.2627360238        7.9284038738      -10.8257800000  MEMB      149             0.0000000000
     17255       149  CHL1      C11            28.9856213271        7.7305633273      -12.3282200000  MEMB      149             0.0000000000
     17256       149  CHL1      H11A           29.9857230902        7.2547662257      -12.2402900000  MEMB      149             0.0000000000
     17257       149  CHL1      H11B           28.4954520162        6.8580374553      -12.8106700000  MEMB      149             0.0000000000
     17258       149  CHL1      C9             28.7986003950        9.0794663817      -13.0468400000  MEMB      149             0.0000000000
     17259       149  CHL1      H9             27.6946761331        9.0071086319      -13.1490500000  MEMB      149             0.0000000000
     17260       149  CHL1      C10            29.4062366645        9.1363637321      -14.4640200000  MEMB      149             0.0000000000
     17261       149  CHL1      C19            30.9256886845        8.7674214743      -14.4738700000  MEMB      149             0.0000000000
     17262       149  CHL1      H19A           31.3971250230        8.9139004438      -15.4691600000  MEMB      149             0.0000000000
     17263       149  CHL1      H19B           31.5382167795        9.4500713506      -13.8468900000  MEMB      149             0.0000000000
     17264       149  CHL1      H19C           31.1259614657        7.7365614481      -14.1111800000  MEMB      149             0.0000000000
     17265       149  CHL1      C1             28.6779991161        8.1731168986      -15.3731100000  MEMB      149             0.0000000000
     17266       149  CHL1      H1A            28.9645890758        7.1110958198      -15.2172100000  MEMB      149             0.0000000000
     17267       149  CHL1      H1B            27.5849963028        8.2568605262      -15.1924300000  MEMB      149             0.0000000000
     17268       149  CHL1      C2             28.9622353522        8.3474082999      -16.9025100000  MEMB      149             0.0000000000
     17269       149  CHL1      H2A            28.1775325842        7.7803720027      -17.4475200000  MEMB      149             0.0000000000
     17270       149  CHL1      H2B            30.0212455388        8.0617061759      -17.0791300000  MEMB      149             0.0000000000
     17271       149  CHL1      C20            29.0307466366        8.1978891038       -7.3694300000  MEMB      149             0.0000000000
     17272       149  CHL1      H20            30.1092953305        8.4478736248       -7.2769100000  MEMB      149             0.0000000000
     17273       149  CHL1      C21            28.9987637967        6.6954766626       -7.5739900000  MEMB      149             0.0000000000
     17274       149  CHL1      H21A           29.4842792059        6.2770223300       -6.6665300000  MEMB      149             0.0000000000
     17275       149  CHL1      H21B           29.4816720608        6.2616206517       -8.4756000000  MEMB      149             0.0000000000
     17276       149  CHL1      H21C           27.9600032680        6.3100111583       -7.4919600000  MEMB      149             0.0000000000
     17277       149  CHL1      C22            28.3426687424        8.5790778733       -6.0870800000  MEMB      149             0.0000000000
     17278       149  CHL1      H22A           27.5209761218        9.3190192001       -6.1949100000  MEMB      149             0.0000000000
     17279       149  CHL1      H22B           27.8085405305        7.6523647010       -5.7867200000  MEMB      149             0.0000000000
     17280       149  CHL1      C23            29.2171507713        8.9741049838       -4.9421400000  MEMB      149             0.0000000000
     17281       149  CHL1      H23A           30.0953361581        8.3001765578       -4.8476700000  MEMB      149             0.0000000000
     17282       149  CHL1      H23B           29.7276258900        9.9590109535       -5.0028900000  MEMB      149             0.0000000000
     17283       149  CHL1      C24            28.4126560442        9.0383335603       -3.6169600000  MEMB      149             0.0000000000
     17284       149  CHL1      H24A           27.7573407251        9.9307209771       -3.5245600000  MEMB      149             0.0000000000
     17285       149  CHL1      H24B           27.8280543810        8.0941174651       -3.5851600000  MEMB      149             0.0000000000
     17286       149  CHL1      C25            29.1726031298        9.2032200643       -2.2371800000  MEMB      149             0.0000000000
     17287       149  CHL1      H25            29.4714425882       10.2646678205       -2.1017400000  MEMB      149             0.0000000000
     17288       149  CHL1      C26            28.2976187748        8.7384783200       -1.0938500000  MEMB      149             0.0000000000
     17289       149  CHL1      H26A           28.7740748148        8.7348419486       -0.0902100000  MEMB      149             0.0000000000
     17290       149  CHL1      H26B           27.4207787551        9.4007933190       -0.9300800000  MEMB      149             0.0000000000
     17291       149  CHL1      H26C           27.9941183619        7.7038443290       -1.3616600000  MEMB      149             0.0000000000
     17292       149  CHL1      C27            30.3878875963        8.2923358120       -2.2223600000  MEMB      149             0.0000000000
     17293       149  CHL1      H27A           31.1300796734        8.7103956719       -2.9355800000  MEMB      149             0.0000000000
     17294       149  CHL1      H27B           30.8630897122        8.1422669548       -1.2293900000  MEMB      149             0.0000000000
     17295       149  CHL1      H27C           30.2240993514        7.2284790386       -2.4975000000  MEMB      149             0.0000000000
     17296       150  SOPE      N              18.3973087483      -27.4916927932      -22.7718452217  MEMB      150             0.0000000000
     17297       150  SOPE      HN1            19.3401937908      -27.1778324032      -23.0785363642  MEMB      150             0.0000000000
     17298       150  SOPE      HN2            18.3768947325      -28.5313211269      -22.7907206717  MEMB      150             0.0000000000
     17299       150  SOPE      HN3            17.6028392440      -27.0553790408      -23.2817947939  MEMB      150             0.0000000000
     17300       150  SOPE      C12            18.4639580559      -27.1487666683      -21.3094823366  MEMB      150             0.0000000000
     17301       150  SOPE      H12A           19.2715664389      -27.7771590237      -20.8768013594  MEMB      150             0.0000000000
     17302       150  SOPE      H12B           17.4964547975      -27.2617011776      -20.7751565032  MEMB      150             0.0000000000
     17303       150  SOPE      C11            18.9172700606      -25.7240476515      -21.0957118091  MEMB      150             0.0000000000
     17304       150  SOPE      H11A           19.8655436731      -25.6210636001      -21.6653541014  MEMB      150             0.0000000000
     17305       150  SOPE      H11B           19.1237259189      -25.5561626033      -20.0170498453  MEMB      150             0.0000000000
     17306       150  SOPE      P              16.9830251932      -24.0865266688      -20.5657309912  MEMB      150             0.0000000000
     17307       150  SOPE      O13            16.5047360547      -24.9825596879      -19.4324906586  MEMB      150             0.0000000000
     17308       150  SOPE      O14            15.9402704999      -23.2267778390      -21.2547914694  MEMB      150             0.0000000000
     17309       150  SOPE      O12            17.8464916705      -24.8998871223      -21.6895085430  MEMB      150             0.0000000000
     17310       150  SOPE      O11            18.0692053134      -23.2108007711      -19.8804390009  MEMB      150             0.0000000000
     17311       150  SOPE      C1             19.0970525953      -22.4248383961      -20.5526412466  MEMB      150             0.0000000000
     17312       150  SOPE      HA             18.6442559050      -21.7291925474      -21.2911350086  MEMB      150             0.0000000000
     17313       150  SOPE      HB             19.8561852837      -23.0693637220      -21.0452116864  MEMB      150             0.0000000000
     17314       150  SOPE      C2             19.9125922107      -21.5338596996      -19.5358090759  MEMB      150             0.0000000000
     17315       150  SOPE      HS             20.7726513499      -21.0048010383      -19.9991837805  MEMB      150             0.0000000000
     17316       150  SOPE      O21            20.4730961950      -22.1231510073      -18.3656793012  MEMB      150             0.0000000000
     17317       150  SOPE      C21            21.5524177376      -22.9364002406      -18.5390637527  MEMB      150             0.0000000000
     17318       150  SOPE      O22            22.0730255858      -23.2048464138      -19.5913518950  MEMB      150             0.0000000000
     17319       150  SOPE      C22            21.9495755705      -23.6605404619      -17.1867606774  MEMB      150             0.0000000000
     17320       150  SOPE      H2R            22.4282093114      -23.0242054281      -16.4119652293  MEMB      150             0.0000000000
     17321       150  SOPE      H2S            22.5473449938      -24.5507530794      -17.4774741613  MEMB      150             0.0000000000
     17322       150  SOPE      C3             19.0210929434      -20.3893751279      -19.0915892657  MEMB      150             0.0000000000
     17323       150  SOPE      HX             18.7230782030      -19.7797914344      -19.9713142345  MEMB      150             0.0000000000
     17324       150  SOPE      HY             19.4497923601      -19.6782241961      -18.3534820990  MEMB      150             0.0000000000
     17325       150  SOPE      O31            17.8381963571      -21.0548574114      -18.4639359186  MEMB      150             0.0000000000
     17326       150  SOPE      C31            17.9572254076      -21.3126774237      -17.1139803321  MEMB      150             0.0000000000
     17327       150  SOPE      O32            18.8709166701      -21.0175585205      -16.3817094662  MEMB      150             0.0000000000
     17328       150  SOPE      C32            16.7393728758      -22.3179169761      -16.6646490913  MEMB      150             0.0000000000
     17329       150  SOPE      H2X            16.9834792284      -23.3750606602      -16.9037734238  MEMB      150             0.0000000000
     17330       150  SOPE      H2Y            15.7871016814      -22.0157624141      -17.1506564703  MEMB      150             0.0000000000
     17331       150  SOPE      C23            20.6273322517      -24.2091497863      -16.4293008163  MEMB      150             0.0000000000
     17332       150  SOPE      H3R            20.1855747039      -25.0415794575      -17.0177159426  MEMB      150             0.0000000000
     17333       150  SOPE      H3S            19.8792517971      -23.3882249740      -16.4013902249  MEMB      150             0.0000000000
     17334       150  SOPE      C24            20.9732388064      -24.6796920678      -14.9879484406  MEMB      150             0.0000000000
     17335       150  SOPE      H4R            21.6688528558      -25.5453434521      -14.9549419575  MEMB      150             0.0000000000
     17336       150  SOPE      H4S            21.4694360856      -23.9017342220      -14.3691671730  MEMB      150             0.0000000000
     17337       150  SOPE      C25            19.6582873680      -25.2052778925      -14.3276840414  MEMB      150             0.0000000000
     17338       150  SOPE      H5R            18.9422657127      -24.3593026800      -14.4048833698  MEMB      150             0.0000000000
     17339       150  SOPE      H5S            19.1321181546      -26.0400172342      -14.8382493728  MEMB      150             0.0000000000
     17340       150  SOPE      C26            19.9949342767      -25.6508056258      -12.9631664385  MEMB      150             0.0000000000
     17341       150  SOPE      H6R            20.6918733916      -26.5061088540      -13.0937537240  MEMB      150             0.0000000000
     17342       150  SOPE      H6S            20.5278463568      -24.8211748866      -12.4512694657  MEMB      150             0.0000000000
     17343       150  SOPE      C27            18.7227841571      -25.8830945649      -12.1079435753  MEMB      150             0.0000000000
     17344       150  SOPE      H7R            18.1929282661      -24.9076618525      -12.1538193240  MEMB      150             0.0000000000
     17345       150  SOPE      H7S            18.0410948737      -26.6484679388      -12.5366908679  MEMB      150             0.0000000000
     17346       150  SOPE      C28            19.1546039351      -26.2920800767      -10.6798754102  MEMB      150             0.0000000000
     17347       150  SOPE      H8R            18.3157375296      -26.7369311023      -10.1030466158  MEMB      150             0.0000000000
     17348       150  SOPE      H8S            19.8364887106      -27.1498406054      -10.8631810285  MEMB      150             0.0000000000
     17349       150  SOPE      C29            19.6892686353      -25.0326213727       -9.9415477441  MEMB      150             0.0000000000
     17350       150  SOPE      H91            19.2498706178      -24.0833338661      -10.2818158325  MEMB      150             0.0000000000
     17351       150  SOPE      C210           20.6824943520      -25.0698075827       -9.0341058661  MEMB      150             0.0000000000
     17352       150  SOPE      H101           21.0684550222      -24.1255695442       -8.6224647708  MEMB      150             0.0000000000
     17353       150  SOPE      C211           21.3937406961      -26.2741317289       -8.5001143622  MEMB      150             0.0000000000
     17354       150  SOPE      H11R           22.4429502996      -26.0884172694       -8.1854868225  MEMB      150             0.0000000000
     17355       150  SOPE      H11S           21.5278315975      -27.0143945891       -9.3176425492  MEMB      150             0.0000000000
     17356       150  SOPE      C212           20.5710745331      -26.9286908478       -7.3359820381  MEMB      150             0.0000000000
     17357       150  SOPE      H12R           21.0476388864      -27.9250014357       -7.2152647664  MEMB      150             0.0000000000
     17358       150  SOPE      H12S           19.4699916830      -26.9397623005       -7.4836807127  MEMB      150             0.0000000000
     17359       150  SOPE      C213           20.7506894999      -26.1637333803       -5.9777901291  MEMB      150             0.0000000000
     17360       150  SOPE      H13R           20.1780432780      -25.2122581489       -6.0108305833  MEMB      150             0.0000000000
     17361       150  SOPE      H13S           21.8043698478      -25.8836174313       -5.7642170560  MEMB      150             0.0000000000
     17362       150  SOPE      C214           20.2005559125      -26.9410406140       -4.7799756292  MEMB      150             0.0000000000
     17363       150  SOPE      H14R           20.7099190973      -27.9273153067       -4.8261514887  MEMB      150             0.0000000000
     17364       150  SOPE      H14S           19.0952791928      -26.9661134154       -4.8897741708  MEMB      150             0.0000000000
     17365       150  SOPE      C215           20.4984803337      -26.1252364527       -3.5249105563  MEMB      150             0.0000000000
     17366       150  SOPE      H15R           19.7489508567      -25.3127557959       -3.4135474764  MEMB      150             0.0000000000
     17367       150  SOPE      H15S           21.5251826316      -25.7082780932       -3.6045911299  MEMB      150             0.0000000000
     17368       150  SOPE      C216           20.3972012112      -26.9783676109       -2.2099347224  MEMB      150             0.0000000000
     17369       150  SOPE      H16R           20.6731774653      -26.3693500203       -1.3226618331  MEMB      150             0.0000000000
     17370       150  SOPE      H16S           21.1173090327      -27.8220207317       -2.2732996704  MEMB      150             0.0000000000
     17371       150  SOPE      C217           18.9860589347      -27.6563085905       -2.0075088231  MEMB      150             0.0000000000
     17372       150  SOPE      H17R           19.2407649438      -28.4337251368       -1.2557985436  MEMB      150             0.0000000000
     17373       150  SOPE      H17S           18.6131032145      -28.2517644536       -2.8681239219  MEMB      150             0.0000000000
     17374       150  SOPE      C218           18.0078936322      -26.6561753781       -1.5000602885  MEMB      150             0.0000000000
     17375       150  SOPE      H18R           17.4084868635      -26.1722991381       -2.3006210427  MEMB      150             0.0000000000
     17376       150  SOPE      H18S           18.6188546896      -26.0195063379       -0.8250044527  MEMB      150             0.0000000000
     17377       150  SOPE      H18T           17.3069547133      -27.0932039721       -0.7570866615  MEMB      150             0.0000000000
     17378       150  SOPE      C33            16.6330488617      -22.3458263236      -15.1264164450  MEMB      150             0.0000000000
     17379       150  SOPE      H3X            17.5822040464      -22.0512584817      -14.6297721013  MEMB      150             0.0000000000
     17380       150  SOPE      H3Y            16.5119340303      -23.4036219284      -14.8090510396  MEMB      150             0.0000000000
     17381       150  SOPE      C34            15.3956750016      -21.6717463251      -14.5079660822  MEMB      150             0.0000000000
     17382       150  SOPE      H4X            14.4457613819      -22.1438873055      -14.8382207948  MEMB      150             0.0000000000
     17383       150  SOPE      H4Y            15.3756879030      -20.5680650214      -14.6337011885  MEMB      150             0.0000000000
     17384       150  SOPE      C35            15.2104256003      -21.9363089898      -12.9778424606  MEMB      150             0.0000000000
     17385       150  SOPE      H5X            15.1114749800      -23.0117069362      -12.7169799435  MEMB      150             0.0000000000
     17386       150  SOPE      H5Y            14.3231273031      -21.3788370812      -12.6087254927  MEMB      150             0.0000000000
     17387       150  SOPE      C36            16.4428300307      -21.4058299483      -12.1804553689  MEMB      150             0.0000000000
     17388       150  SOPE      H6X            16.7133706148      -20.3963965668      -12.5575138778  MEMB      150             0.0000000000
     17389       150  SOPE      H6Y            17.2934655423      -22.0947640873      -12.3704815322  MEMB      150             0.0000000000
     17390       150  SOPE      C37            16.1877024990      -21.1768473328      -10.6556072540  MEMB      150             0.0000000000
     17391       150  SOPE      H7X            15.7780443583      -20.1468540446      -10.5806732138  MEMB      150             0.0000000000
     17392       150  SOPE      H7Y            17.1573570182      -21.1846488330      -10.1133614874  MEMB      150             0.0000000000
     17393       150  SOPE      C38            15.2877658861      -22.3451953768      -10.1432168295  MEMB      150             0.0000000000
     17394       150  SOPE      H8X            15.4854332792      -23.3201168359      -10.6379660444  MEMB      150             0.0000000000
     17395       150  SOPE      H8Y            14.2656564183      -21.9801538071      -10.3806162205  MEMB      150             0.0000000000
     17396       150  SOPE      C39            15.2553748294      -22.4330386500       -8.6188666861  MEMB      150             0.0000000000
     17397       150  SOPE      H9X            14.9811990151      -21.5062177892       -8.0710058265  MEMB      150             0.0000000000
     17398       150  SOPE      H9Y            16.2875718816      -22.6291480412       -8.2577140327  MEMB      150             0.0000000000
     17399       150  SOPE      C310           14.2602535148      -23.4180157882       -8.0106212112  MEMB      150             0.0000000000
     17400       150  SOPE      H10X           13.1975615463      -23.1046437782       -8.0931088881  MEMB      150             0.0000000000
     17401       150  SOPE      H10Y           14.2999610569      -23.3508213014       -6.9023663306  MEMB      150             0.0000000000
     17402       150  SOPE      C311           14.2964243506      -24.8921482490       -8.3808981995  MEMB      150             0.0000000000
     17403       150  SOPE      H11X           14.4576869597      -25.0151424389       -9.4732288466  MEMB      150             0.0000000000
     17404       150  SOPE      H11Y           13.3200730625      -25.2690644153       -8.0080791495  MEMB      150             0.0000000000
     17405       150  SOPE      C312           15.4818413576      -25.7295399216       -7.8392673671  MEMB      150             0.0000000000
     17406       150  SOPE      H12X           16.3319589655      -25.0786439834       -8.1358403030  MEMB      150             0.0000000000
     17407       150  SOPE      H12Y           15.5167313467      -26.7601446960       -8.2527373619  MEMB      150             0.0000000000
     17408       150  SOPE      C313           15.5705334607      -25.7321273133       -6.2854779469  MEMB      150             0.0000000000
     17409       150  SOPE      H13X           15.6780653011      -24.6816432191       -5.9401646589  MEMB      150             0.0000000000
     17410       150  SOPE      H13Y           16.4546306851      -26.3357670816       -5.9883041374  MEMB      150             0.0000000000
     17411       150  SOPE      C314           14.3165799837      -26.3320687871       -5.5418207016  MEMB      150             0.0000000000
     17412       150  SOPE      H14X           14.1915341312      -27.4144950331       -5.7587027872  MEMB      150             0.0000000000
     17413       150  SOPE      H14Y           13.3735363114      -25.8012086573       -5.7931713251  MEMB      150             0.0000000000
     17414       150  SOPE      C315           14.4984984483      -26.0991546695       -3.9720728312  MEMB      150             0.0000000000
     17415       150  SOPE      H15X           14.8138296357      -25.0376501167       -3.8821005812  MEMB      150             0.0000000000
     17416       150  SOPE      H15Y           15.2732686081      -26.8436692956       -3.6896724509  MEMB      150             0.0000000000
     17417       150  SOPE      C316           13.2035956323      -26.4325621203       -3.2011629322  MEMB      150             0.0000000000
     17418       150  SOPE      H16X           12.6573234308      -27.2947397151       -3.6399772833  MEMB      150             0.0000000000
     17419       150  SOPE      H16Y           12.5521531098      -25.5452665562       -3.3516621648  MEMB      150             0.0000000000
     17420       150  SOPE      C317           13.4411710408      -26.7063046234       -1.7027395439  MEMB      150             0.0000000000
     17421       150  SOPE      H17X           12.4507534487      -26.6127592156       -1.2081242086  MEMB      150             0.0000000000
     17422       150  SOPE      H17Y           14.0282795449      -25.8612563629       -1.2837908839  MEMB      150             0.0000000000
     17423       150  SOPE      C318           14.0587189678      -28.0223851536       -1.3198164961  MEMB      150             0.0000000000
     17424       150  SOPE      H18X           13.4732747676      -28.8196768382       -1.8256845070  MEMB      150             0.0000000000
     17425       150  SOPE      H18Y           13.8534902456      -28.0685548023       -0.2289125520  MEMB      150             0.0000000000
     17426       150  SOPE      H18Z           15.1298081854      -28.1150316934       -1.6000053848  MEMB      150             0.0000000000
     17427       151  POPC      N              14.3525880252       27.1919864629      -20.3459536993  MEMB      151             0.0000000000
     17428       151  POPC      C12            14.8940330509       25.7992350281      -20.1243029108  MEMB      151             0.0000000000
     17429       151  POPC      H12A           14.7530869003       25.3030076933      -21.0731403682  MEMB      151             0.0000000000
     17430       151  POPC      H12B           14.2437130816       25.2245025701      -19.4815226127  MEMB      151             0.0000000000
     17431       151  POPC      C13            14.0958330479       27.8858974150      -19.0273191528  MEMB      151             0.0000000000
     17432       151  POPC      H13A           13.6749793590       28.8780728239      -19.0971055890  MEMB      151             0.0000000000
     17433       151  POPC      H13B           13.4788466313       27.2515196576      -18.4082128744  MEMB      151             0.0000000000
     17434       151  POPC      H13C           14.9959008189       28.0779243551      -18.4621611680  MEMB      151             0.0000000000
     17435       151  POPC      C14            15.4115019704       27.9207745424      -21.1043493851  MEMB      151             0.0000000000
     17436       151  POPC      H14A           15.4995760689       27.5420880083      -22.1119402271  MEMB      151             0.0000000000
     17437       151  POPC      H14B           15.1840254938       28.9764557645      -21.1181952540  MEMB      151             0.0000000000
     17438       151  POPC      H14C           16.3069591297       27.7531989685      -20.5242849119  MEMB      151             0.0000000000
     17439       151  POPC      C15            13.0160836503       27.1197960088      -21.0327925611  MEMB      151             0.0000000000
     17440       151  POPC      H15A           12.4838219854       28.0586326055      -21.0738136725  MEMB      151             0.0000000000
     17441       151  POPC      H15B           12.4052294567       26.5247407329      -20.3700963471  MEMB      151             0.0000000000
     17442       151  POPC      H15C           13.1148141564       26.7216093133      -22.0318419994  MEMB      151             0.0000000000
     17443       151  POPC      C11            16.3463521057       25.5168830566      -19.6431740504  MEMB      151             0.0000000000
     17444       151  POPC      H11A           17.0099297016       25.7624711599      -20.4997206878  MEMB      151             0.0000000000
     17445       151  POPC      H11B           16.4913203434       24.4286753589      -19.4725600884  MEMB      151             0.0000000000
     17446       151  POPC      P              17.9312399110       26.1772333951      -17.5430794062  MEMB      151             0.0000000000
     17447       151  POPC      O13            18.4968965624       27.5041456791      -17.5599988047  MEMB      151             0.0000000000
     17448       151  POPC      O14            18.7049818829       25.0506597886      -18.1643958041  MEMB      151             0.0000000000
     17449       151  POPC      O12            16.6154289978       26.2372990244      -18.4139962513  MEMB      151             0.0000000000
     17450       151  POPC      O11            17.4878419279       25.7554680875      -16.0406379689  MEMB      151             0.0000000000
     17451       151  POPC      C1             16.3965117081       24.8594223880      -15.8150761043  MEMB      151             0.0000000000
     17452       151  POPC      HA             16.6760511164       24.2851116820      -14.9060403609  MEMB      151             0.0000000000
     17453       151  POPC      HB             16.3649550905       24.1347598359      -16.6566160754  MEMB      151             0.0000000000
     17454       151  POPC      C2             15.1634274066       25.7159331762      -15.5535528587  MEMB      151             0.0000000000
     17455       151  POPC      HS             15.1485994138       26.4972122308      -16.3433023071  MEMB      151             0.0000000000
     17456       151  POPC      O21            15.3159235103       26.2671080960      -14.2218344144  MEMB      151             0.0000000000
     17457       151  POPC      C21            14.8055866858       27.5436051931      -14.0394889200  MEMB      151             0.0000000000
     17458       151  POPC      O22            14.3044593962       28.2023742887      -14.9459531705  MEMB      151             0.0000000000
     17459       151  POPC      C22            14.9767847181       27.9199586067      -12.5965588120  MEMB      151             0.0000000000
     17460       151  POPC      H2R            14.9150766462       29.0069621714      -12.3753428098  MEMB      151             0.0000000000
     17461       151  POPC      H2S            15.9530533718       27.5241694888      -12.2436121249  MEMB      151             0.0000000000
     17462       151  POPC      C3             13.8879813034       24.8571137599      -15.5105926045  MEMB      151             0.0000000000
     17463       151  POPC      HX             13.9206921258       24.1007378796      -16.3237019699  MEMB      151             0.0000000000
     17464       151  POPC      HY             13.0656150589       25.5974654543      -15.6101615399  MEMB      151             0.0000000000
     17465       151  POPC      O31            13.7532354305       24.0170585925      -14.3051964866  MEMB      151             0.0000000000
     17466       151  POPC      C31            12.5882564569       23.8904090893      -13.6961195022  MEMB      151             0.0000000000
     17467       151  POPC      O32            11.5198109931       24.0413734343      -14.1645381047  MEMB      151             0.0000000000
     17468       151  POPC      C32            12.8527272798       23.4808367057      -12.2753938622  MEMB      151             0.0000000000
     17469       151  POPC      H2X            11.9557158432       23.1528246741      -11.7078562117  MEMB      151             0.0000000000
     17470       151  POPC      H2Y            13.3835986140       24.3021606541      -11.7482094587  MEMB      151             0.0000000000
     17471       151  POPC      C23            13.8277856671       27.2730646090      -11.8745798452  MEMB      151             0.0000000000
     17472       151  POPC      H3R            13.8427400626       26.1638279342      -11.9353376934  MEMB      151             0.0000000000
     17473       151  POPC      H3S            12.9076113729       27.6424493658      -12.3757337389  MEMB      151             0.0000000000
     17474       151  POPC      C24            13.6947081849       27.6499452543      -10.4237128016  MEMB      151             0.0000000000
     17475       151  POPC      H4R            13.8879194910       28.7250587327      -10.2209291073  MEMB      151             0.0000000000
     17476       151  POPC      H4S            14.5201170787       27.1425748429       -9.8800249822  MEMB      151             0.0000000000
     17477       151  POPC      C25            12.3767402755       27.1531437627       -9.7433768647  MEMB      151             0.0000000000
     17478       151  POPC      H5R            12.1538521739       26.0675499538       -9.6650959084  MEMB      151             0.0000000000
     17479       151  POPC      H5S            11.5818982403       27.7121217353      -10.2819779248  MEMB      151             0.0000000000
     17480       151  POPC      C26            12.3197477108       27.6972672712       -8.2820054715  MEMB      151             0.0000000000
     17481       151  POPC      H6R            11.2900394338       27.6798719883       -7.8652084672  MEMB      151             0.0000000000
     17482       151  POPC      H6S            12.7472819754       28.7182029341       -8.3780568323  MEMB      151             0.0000000000
     17483       151  POPC      C27            13.3849658963       27.0310965026       -7.3771528852  MEMB      151             0.0000000000
     17484       151  POPC      H7R            14.3574804881       27.2692146440       -7.8586464512  MEMB      151             0.0000000000
     17485       151  POPC      H7S            13.2581602248       25.9287593975       -7.3215263737  MEMB      151             0.0000000000
     17486       151  POPC      C28            13.6180709401       27.5193071971       -5.8922658567  MEMB      151             0.0000000000
     17487       151  POPC      H8R            14.2562681062       26.8169322706       -5.3146024019  MEMB      151             0.0000000000
     17488       151  POPC      H8S            12.6368540408       27.4516520711       -5.3755859089  MEMB      151             0.0000000000
     17489       151  POPC      C29            14.1357683168       28.9280014595       -5.8395690380  MEMB      151             0.0000000000
     17490       151  POPC      H91            14.5309165512       29.2151354024       -6.8251712332  MEMB      151             0.0000000000
     17491       151  POPC      C210           13.9948742699       29.7529245049       -4.8405582971  MEMB      151             0.0000000000
     17492       151  POPC      H101           14.3572376692       30.7907415195       -4.8809131485  MEMB      151             0.0000000000
     17493       151  POPC      C211           13.3038410704       29.4525256969       -3.4777820099  MEMB      151             0.0000000000
     17494       151  POPC      H11R           12.2681613897       29.0676274185       -3.5941514452  MEMB      151             0.0000000000
     17495       151  POPC      H11S           13.1748122175       30.4058735152       -2.9220840961  MEMB      151             0.0000000000
     17496       151  POPC      C212           13.9983464726       28.4884169844       -2.5013417449  MEMB      151             0.0000000000
     17497       151  POPC      H12R           15.0879988423       28.6837408569       -2.4073879761  MEMB      151             0.0000000000
     17498       151  POPC      H12S           14.0371203270       27.4912746395       -2.9897309648  MEMB      151             0.0000000000
     17499       151  POPC      C213           13.2169062914       28.3973972506       -1.2102897548  MEMB      151             0.0000000000
     17500       151  POPC      H13R           13.4561219390       27.4525724646       -0.6769964542  MEMB      151             0.0000000000
     17501       151  POPC      H13S           12.1617511247       28.2631566503       -1.5311456334  MEMB      151             0.0000000000
     17502       151  POPC      C214           13.4943601468       29.4557969791       -0.0538375528  MEMB      151             0.0000000000
     17503       151  POPC      H14R           12.6373990194       29.4494883559        0.6531970683  MEMB      151             0.0000000000
     17504       151  POPC      H14S           13.4084543171       30.4381918176       -0.5655424672  MEMB      151             0.0000000000
     17505       151  POPC      C215           14.8263085984       29.2426195971        0.6361315291  MEMB      151             0.0000000000
     17506       151  POPC      H15R           15.6701183087       29.2690358416       -0.0860933682  MEMB      151             0.0000000000
     17507       151  POPC      H15S           14.9365833658       28.2437099658        1.1097766905  MEMB      151             0.0000000000
     17508       151  POPC      C216           15.0373705850       30.2621724670        1.8239668317  MEMB      151             0.0000000000
     17509       151  POPC      H16R           15.8883928834       29.8442027133        2.4030889907  MEMB      151             0.0000000000
     17510       151  POPC      H16S           14.0832187469       30.1209666150        2.3753059569  MEMB      151             0.0000000000
     17511       151  POPC      C217           15.2424511243       31.6787874197        1.4816769303  MEMB      151             0.0000000000
     17512       151  POPC      H17R           15.3239137310       32.3659474867        2.3508709652  MEMB      151             0.0000000000
     17513       151  POPC      H17S           14.3538773960       32.0111332078        0.9034875516  MEMB      151             0.0000000000
     17514       151  POPC      C218           16.3329768565       31.9466743491        0.5352134758  MEMB      151             0.0000000000
     17515       151  POPC      H18R           17.3426293086       31.6045140788        0.8480221832  MEMB      151             0.0000000000
     17516       151  POPC      H18S           16.3701768921       33.0570416074        0.5398777787  MEMB      151             0.0000000000
     17517       151  POPC      H18T           16.1872029329       31.6130075707       -0.5144222714  MEMB      151             0.0000000000
     17518       151  POPC      C33            13.8074331554       22.2429386981      -12.2872969683  MEMB      151             0.0000000000
     17519       151  POPC      H3X            14.7748395277       22.5720616157      -12.7233292991  MEMB      151             0.0000000000
     17520       151  POPC      H3Y            13.4472011727       21.4142632586      -12.9337107744  MEMB      151             0.0000000000
     17521       151  POPC      C34            14.1487231404       21.7154319976      -10.8562029670  MEMB      151             0.0000000000
     17522       151  POPC      H4X            15.0977904473       21.1383955840      -10.8811267959  MEMB      151             0.0000000000
     17523       151  POPC      H4Y            13.3435724774       21.0337014381      -10.5079252433  MEMB      151             0.0000000000
     17524       151  POPC      C35            14.3341826701       22.7590597250       -9.7596268059  MEMB      151             0.0000000000
     17525       151  POPC      H5X            14.3137353970       22.2358893987       -8.7797309856  MEMB      151             0.0000000000
     17526       151  POPC      H5Y            13.6086267954       23.6003925320       -9.7666030009  MEMB      151             0.0000000000
     17527       151  POPC      C36            15.7513291266       23.3049615570       -9.7656963246  MEMB      151             0.0000000000
     17528       151  POPC      H6X            15.8950245567       23.9172582338      -10.6815376804  MEMB      151             0.0000000000
     17529       151  POPC      H6Y            16.4078997359       22.4137480463       -9.8604297794  MEMB      151             0.0000000000
     17530       151  POPC      C37            16.2327097819       24.2051367335       -8.6332218589  MEMB      151             0.0000000000
     17531       151  POPC      H7X            15.5194469219       25.0402266849       -8.8011553841  MEMB      151             0.0000000000
     17532       151  POPC      H7Y            17.2763143065       24.5716474819       -8.7375328024  MEMB      151             0.0000000000
     17533       151  POPC      C38            15.9639235352       23.6866677620       -7.2099780729  MEMB      151             0.0000000000
     17534       151  POPC      H8X            16.4285370191       22.6788218527       -7.1579969031  MEMB      151             0.0000000000
     17535       151  POPC      H8Y            14.8648184793       23.5979003065       -7.0742971281  MEMB      151             0.0000000000
     17536       151  POPC      C39            16.3894890723       24.6072402089       -6.0586040533  MEMB      151             0.0000000000
     17537       151  POPC      H9X            15.7162591178       25.4883101259       -6.1278733426  MEMB      151             0.0000000000
     17538       151  POPC      H9Y            17.3783795323       25.0337416762       -6.3315759993  MEMB      151             0.0000000000
     17539       151  POPC      C310           16.5392847374       23.9212451684       -4.6730961603  MEMB      151             0.0000000000
     17540       151  POPC      H10X           17.3907002439       23.2113049369       -4.7465606977  MEMB      151             0.0000000000
     17541       151  POPC      H10Y           15.5959439551       23.3476259372       -4.5490375631  MEMB      151             0.0000000000
     17542       151  POPC      C311           16.7781407269       24.8797536771       -3.5068870474  MEMB      151             0.0000000000
     17543       151  POPC      H11X           16.6494269287       24.2280766771       -2.6163418975  MEMB      151             0.0000000000
     17544       151  POPC      H11Y           15.9455148801       25.6018184214       -3.3666094945  MEMB      151             0.0000000000
     17545       151  POPC      C312           18.1391269866       25.5575855612       -3.4259464502  MEMB      151             0.0000000000
     17546       151  POPC      H12X           17.9604781876       26.4675931620       -4.0377408592  MEMB      151             0.0000000000
     17547       151  POPC      H12Y           18.9442686364       25.0614960097       -4.0090107943  MEMB      151             0.0000000000
     17548       151  POPC      C313           18.6458164796       25.6859711096       -2.0046925817  MEMB      151             0.0000000000
     17549       151  POPC      H13X           19.6929321408       26.0569437793       -1.9889165115  MEMB      151             0.0000000000
     17550       151  POPC      H13Y           18.7779332278       24.6866961720       -1.5374501507  MEMB      151             0.0000000000
     17551       151  POPC      C314           17.8581004255       26.6941723028       -1.1282410220  MEMB      151             0.0000000000
     17552       151  POPC      H14X           16.7653059064       26.4946334665       -1.1457253362  MEMB      151             0.0000000000
     17553       151  POPC      H14Y           17.9741512158       27.6954903650       -1.5953751007  MEMB      151             0.0000000000
     17554       151  POPC      C315           18.4497229445       26.7922382486        0.2327464691  MEMB      151             0.0000000000
     17555       151  POPC      H15X           17.8852097877       27.5288887543        0.8434786567  MEMB      151             0.0000000000
     17556       151  POPC      H15Y           19.4509089672       27.2650356022        0.1410381780  MEMB      151             0.0000000000
     17557       151  POPC      C316           18.4896833834       25.5308589235        1.0998135638  MEMB      151             0.0000000000
     17558       151  POPC      H16X           17.5687131980       24.9249012078        0.9621543015  MEMB      151             0.0000000000
     17559       151  POPC      H16Y           18.7590963931       25.7025424331        2.1638909521  MEMB      151             0.0000000000
     17560       151  POPC      H16Z           19.2512610759       24.9181538099        0.5716922104  MEMB      151             0.0000000000
     17561       152  SAPE      N              23.6999331715       17.0831488209      -22.6143183315  MEMB      152             0.0000000000
     17562       152  SAPE      HN1            23.5058399407       16.0813541623      -22.4134817917  MEMB      152             0.0000000000
     17563       152  SAPE      HN2            23.0652756132       17.6697440698      -22.0357721497  MEMB      152             0.0000000000
     17564       152  SAPE      HN3            23.4980500108       17.1502911334      -23.6323238096  MEMB      152             0.0000000000
     17565       152  SAPE      C12            25.1191485462       17.2305627719      -22.2288249012  MEMB      152             0.0000000000
     17566       152  SAPE      H12A           25.3617992485       18.3100958831      -22.3290746406  MEMB      152             0.0000000000
     17567       152  SAPE      H12B           25.6503713756       16.6468062853      -23.0107144483  MEMB      152             0.0000000000
     17568       152  SAPE      C11            25.5182804655       16.6649948691      -20.8204008094  MEMB      152             0.0000000000
     17569       152  SAPE      H11A           25.5179651615       15.5546412610      -20.8582910495  MEMB      152             0.0000000000
     17570       152  SAPE      H11B           24.6945850284       16.9117483767      -20.1168670977  MEMB      152             0.0000000000
     17571       152  SAPE      P              27.1259060922       17.0248548666      -18.8474406061  MEMB      152             0.0000000000
     17572       152  SAPE      O13            26.4046164754       15.9452618663      -18.1731581823  MEMB      152             0.0000000000
     17573       152  SAPE      O14            28.6153540135       17.2201323382      -18.5952109304  MEMB      152             0.0000000000
     17574       152  SAPE      O12            26.8476734453       17.0516875362      -20.4175203643  MEMB      152             0.0000000000
     17575       152  SAPE      O11            26.3720685638       18.3834033151      -18.3031258690  MEMB      152             0.0000000000
     17576       152  SAPE      C1             26.7563442318       19.6656568141      -18.8427501569  MEMB      152             0.0000000000
     17577       152  SAPE      HA             27.8212412619       19.8784022008      -18.6081133849  MEMB      152             0.0000000000
     17578       152  SAPE      HB             26.5991976697       19.7814488577      -19.9364677731  MEMB      152             0.0000000000
     17579       152  SAPE      C2             25.9205994603       20.8367157096      -18.1093577496  MEMB      152             0.0000000000
     17580       152  SAPE      HS             26.4711915807       21.7680081383      -18.3620707413  MEMB      152             0.0000000000
     17581       152  SAPE      O21            25.8986309933       20.7711733790      -16.6230476491  MEMB      152             0.0000000000
     17582       152  SAPE      C21            27.1013421559       21.1092223823      -16.0272757385  MEMB      152             0.0000000000
     17583       152  SAPE      O22            28.0798299400       21.5187780319      -16.6461521797  MEMB      152             0.0000000000
     17584       152  SAPE      C22            26.8671004073       20.9558056797      -14.5104710174  MEMB      152             0.0000000000
     17585       152  SAPE      H2R            25.7895423679       20.9505166355      -14.2399866217  MEMB      152             0.0000000000
     17586       152  SAPE      H2S            27.4654807489       20.1612223759      -14.0155977649  MEMB      152             0.0000000000
     17587       152  SAPE      C3             24.4347744593       20.8637189732      -18.5840461515  MEMB      152             0.0000000000
     17588       152  SAPE      HX             24.5844023984       21.0003877455      -19.6764078682  MEMB      152             0.0000000000
     17589       152  SAPE      HY             23.8594930172       21.7125364511      -18.1563997958  MEMB      152             0.0000000000
     17590       152  SAPE      O31            23.8204992974       19.5854612551      -18.2760335052  MEMB      152             0.0000000000
     17591       152  SAPE      C31            22.8680514454       19.5215699381      -17.4146253451  MEMB      152             0.0000000000
     17592       152  SAPE      O32            22.4471915622       20.4324149114      -16.6973890058  MEMB      152             0.0000000000
     17593       152  SAPE      C32            22.3221856195       18.0741152474      -17.3248422879  MEMB      152             0.0000000000
     17594       152  SAPE      H2X            22.2096638930       17.7386240565      -18.3779831487  MEMB      152             0.0000000000
     17595       152  SAPE      H2Y            21.3090293156       18.0869481288      -16.8691335480  MEMB      152             0.0000000000
     17596       152  SAPE      C23            27.1805081095       22.3472228468      -13.8732521778  MEMB      152             0.0000000000
     17597       152  SAPE      H3R            26.6748444616       23.1173770419      -14.4941286905  MEMB      152             0.0000000000
     17598       152  SAPE      H3S            28.2888340784       22.4077502694      -13.9209026508  MEMB      152             0.0000000000
     17599       152  SAPE      C24            26.6727996237       22.4321538515      -12.4145505742  MEMB      152             0.0000000000
     17600       152  SAPE      H4R            27.1847360945       23.2785336517      -11.9087011860  MEMB      152             0.0000000000
     17601       152  SAPE      H4S            26.9548400332       21.4960910406      -11.8867621063  MEMB      152             0.0000000000
     17602       152  SAPE      C25            25.1890115615       22.6868337735      -12.3464241998  MEMB      152             0.0000000000
     17603       152  SAPE      H5R            24.7816151527       23.5254338696      -12.9301855391  MEMB      152             0.0000000000
     17604       152  SAPE      C26            24.3312830310       22.1807062148      -11.4286376393  MEMB      152             0.0000000000
     17605       152  SAPE      H6R            23.2961720470       22.4277011170      -11.7070949956  MEMB      152             0.0000000000
     17606       152  SAPE      C27            24.5655931514       21.1738270327      -10.2764842898  MEMB      152             0.0000000000
     17607       152  SAPE      H7R            23.7593147425       21.2070010245       -9.5128509759  MEMB      152             0.0000000000
     17608       152  SAPE      H7S            25.4151602336       21.4515213725       -9.6166034526  MEMB      152             0.0000000000
     17609       152  SAPE      C28            24.5549000223       19.7291861731      -10.6658984820  MEMB      152             0.0000000000
     17610       152  SAPE      H8R            25.5396930660       19.2406308097      -10.6272139556  MEMB      152             0.0000000000
     17611       152  SAPE      C29            23.4624458447       18.8917929599      -10.8820162512  MEMB      152             0.0000000000
     17612       152  SAPE      H9R            23.7480326185       17.8398843467      -11.0300999288  MEMB      152             0.0000000000
     17613       152  SAPE      C210           22.0352192961       19.3666356264      -10.6641556146  MEMB      152             0.0000000000
     17614       152  SAPE      H10R           21.6079938495       19.6392025615      -11.6528446138  MEMB      152             0.0000000000
     17615       152  SAPE      H10S           22.0750563566       20.3425081788      -10.1346212427  MEMB      152             0.0000000000
     17616       152  SAPE      C211           21.2373517768       18.2699554433      -10.0107788522  MEMB      152             0.0000000000
     17617       152  SAPE      H11R           20.6416403876       17.6412429045      -10.6889007615  MEMB      152             0.0000000000
     17618       152  SAPE      C212           21.1489146477       18.1199075805       -8.6747991528  MEMB      152             0.0000000000
     17619       152  SAPE      H12R           20.6926518673       17.1974133398       -8.2864326537  MEMB      152             0.0000000000
     17620       152  SAPE      C213           21.8489980012       18.9774824477       -7.5935822543  MEMB      152             0.0000000000
     17621       152  SAPE      H13R           22.8696534243       19.2573037858       -7.9316400970  MEMB      152             0.0000000000
     17622       152  SAPE      H13S           22.0700627810       18.2576690811       -6.7766859975  MEMB      152             0.0000000000
     17623       152  SAPE      C214           21.0372375028       20.1769990040       -7.0937139667  MEMB      152             0.0000000000
     17624       152  SAPE      H14R           20.6473273066       20.8600302990       -7.8627645292  MEMB      152             0.0000000000
     17625       152  SAPE      C215           20.7969741343       20.4635935635       -5.7907460183  MEMB      152             0.0000000000
     17626       152  SAPE      H15R           20.2516427813       21.3925567175       -5.5679432037  MEMB      152             0.0000000000
     17627       152  SAPE      C216           21.2440991753       19.7280670077       -4.5284600148  MEMB      152             0.0000000000
     17628       152  SAPE      H16R           21.2617737294       18.6316139307       -4.7067833742  MEMB      152             0.0000000000
     17629       152  SAPE      H16S           20.4807442397       19.9724661579       -3.7591238517  MEMB      152             0.0000000000
     17630       152  SAPE      C217           22.6763631141       20.1270761319       -4.0295576617  MEMB      152             0.0000000000
     17631       152  SAPE      H17R           23.3748391708       20.7608143433       -4.6167776346  MEMB      152             0.0000000000
     17632       152  SAPE      H17S           23.1366661873       19.1233969606       -3.9067977726  MEMB      152             0.0000000000
     17633       152  SAPE      C218           22.5838103385       20.8645623597       -2.6929507425  MEMB      152             0.0000000000
     17634       152  SAPE      H18R           22.0098838448       20.1903589079       -2.0218470863  MEMB      152             0.0000000000
     17635       152  SAPE      H18S           21.9405869707       21.7680766323       -2.7581185219  MEMB      152             0.0000000000
     17636       152  SAPE      C219           23.9002045139       21.2649092066       -2.1270555678  MEMB      152             0.0000000000
     17637       152  SAPE      H19R           24.5329167857       20.3571314825       -2.0273771534  MEMB      152             0.0000000000
     17638       152  SAPE      H19S           23.8061726337       21.7330734966       -1.1239105872  MEMB      152             0.0000000000
     17639       152  SAPE      C220           24.6268492623       22.3490200967       -2.9530000390  MEMB      152             0.0000000000
     17640       152  SAPE      H20R           25.3733731964       22.8477049973       -2.2985248195  MEMB      152             0.0000000000
     17641       152  SAPE      H20S           23.9021377862       23.1275192521       -3.2740194262  MEMB      152             0.0000000000
     17642       152  SAPE      H20T           25.1468374643       21.8493960040       -3.7981679133  MEMB      152             0.0000000000
     17643       152  SAPE      C33            23.2829685739       17.1089680398      -16.6477102149  MEMB      152             0.0000000000
     17644       152  SAPE      H3X            24.2925655285       17.2533519540      -17.0883781576  MEMB      152             0.0000000000
     17645       152  SAPE      H3Y            22.9057998848       16.0965249160      -16.9065991784  MEMB      152             0.0000000000
     17646       152  SAPE      C34            23.4133982160       16.9855490614      -15.0867634903  MEMB      152             0.0000000000
     17647       152  SAPE      H4X            22.4712807489       16.4677578772      -14.8063564439  MEMB      152             0.0000000000
     17648       152  SAPE      H4Y            23.5987691111       18.0246225163      -14.7399422944  MEMB      152             0.0000000000
     17649       152  SAPE      C35            24.6074552488       16.1529589081      -14.7237034782  MEMB      152             0.0000000000
     17650       152  SAPE      H5X            24.5600549554       15.3079591379      -15.4434596621  MEMB      152             0.0000000000
     17651       152  SAPE      H5Y            24.5103476128       15.7577899532      -13.6899080558  MEMB      152             0.0000000000
     17652       152  SAPE      C36            25.9327730392       16.9423388476      -14.7742891968  MEMB      152             0.0000000000
     17653       152  SAPE      H6X            25.9231726114       17.8475077079      -14.1301633306  MEMB      152             0.0000000000
     17654       152  SAPE      H6Y            26.3291966325       17.3961263456      -15.7076947105  MEMB      152             0.0000000000
     17655       152  SAPE      C37            27.1849615317       16.0411735111      -14.5365711022  MEMB      152             0.0000000000
     17656       152  SAPE      H7X            28.0757204357       16.6768172620      -14.7284734449  MEMB      152             0.0000000000
     17657       152  SAPE      H7Y            27.2803861985       15.2249433460      -15.2842229273  MEMB      152             0.0000000000
     17658       152  SAPE      C38            27.2389825989       15.3536890777      -13.1453674355  MEMB      152             0.0000000000
     17659       152  SAPE      H8X            28.1348220369       14.6984577337      -13.0957269283  MEMB      152             0.0000000000
     17660       152  SAPE      H8Y            26.3523903536       14.7093860990      -12.9632984757  MEMB      152             0.0000000000
     17661       152  SAPE      C39            27.2551072961       16.3367027229      -11.9683051445  MEMB      152             0.0000000000
     17662       152  SAPE      H9X            26.4500617013       17.0681208954      -12.1946895931  MEMB      152             0.0000000000
     17663       152  SAPE      H9Y            28.2317538186       16.8654255142      -11.9377321126  MEMB      152             0.0000000000
     17664       152  SAPE      C310           26.9668810990       15.6115437757      -10.6282648855  MEMB      152             0.0000000000
     17665       152  SAPE      H10X           27.8877243226       15.0934334253      -10.2848556382  MEMB      152             0.0000000000
     17666       152  SAPE      H10Y           26.1793488526       14.8623209263      -10.8580023974  MEMB      152             0.0000000000
     17667       152  SAPE      C311           26.3992366346       16.4184836608       -9.4157529252  MEMB      152             0.0000000000
     17668       152  SAPE      H11X           26.1678184840       15.6668035181       -8.6310591779  MEMB      152             0.0000000000
     17669       152  SAPE      H11Y           25.4834891709       16.9620357591       -9.7324211784  MEMB      152             0.0000000000
     17670       152  SAPE      C312           27.5382796562       17.3298661437       -8.9281897226  MEMB      152             0.0000000000
     17671       152  SAPE      H12X           27.7792491618       18.0875641636       -9.7041724010  MEMB      152             0.0000000000
     17672       152  SAPE      H12Y           28.4804459825       16.7613138820       -8.7752452104  MEMB      152             0.0000000000
     17673       152  SAPE      C313           27.2806632636       17.8916762784       -7.5540863066  MEMB      152             0.0000000000
     17674       152  SAPE      H13X           27.5246095211       17.0880280664       -6.8267890923  MEMB      152             0.0000000000
     17675       152  SAPE      H13Y           26.2076337451       18.1107213897       -7.3671431496  MEMB      152             0.0000000000
     17676       152  SAPE      C314           28.0741026285       19.2126643088       -7.2221943970  MEMB      152             0.0000000000
     17677       152  SAPE      H14X           27.6290719065       20.0660404312       -7.7771876856  MEMB      152             0.0000000000
     17678       152  SAPE      H14Y           29.1695709133       19.2016244856       -7.4069862620  MEMB      152             0.0000000000
     17679       152  SAPE      C315           27.9900866530       19.5858109619       -5.7100827919  MEMB      152             0.0000000000
     17680       152  SAPE      H15X           28.5125413357       18.8078286900       -5.1133374566  MEMB      152             0.0000000000
     17681       152  SAPE      H15Y           26.9399660887       19.5711442620       -5.3476571363  MEMB      152             0.0000000000
     17682       152  SAPE      C316           28.6915857895       20.9047310785       -5.3798415318  MEMB      152             0.0000000000
     17683       152  SAPE      H16X           28.5304071792       21.8064770718       -6.0084880427  MEMB      152             0.0000000000
     17684       152  SAPE      H16Y           29.7654665761       20.6455153559       -5.4977756194  MEMB      152             0.0000000000
     17685       152  SAPE      C317           28.3906029599       21.3212801197       -3.9379857987  MEMB      152             0.0000000000
     17686       152  SAPE      H17X           27.2972940278       21.5177611581       -3.9181888606  MEMB      152             0.0000000000
     17687       152  SAPE      H17Y           28.9166213547       22.2399977858       -3.6009641591  MEMB      152             0.0000000000
     17688       152  SAPE      C318           28.7395531318       20.2195017066       -2.8196165507  MEMB      152             0.0000000000
     17689       152  SAPE      H18X           29.7994504777       20.0190746157       -2.5535951169  MEMB      152             0.0000000000
     17690       152  SAPE      H18Y           28.2517219423       19.2600636988       -3.0949723404  MEMB      152             0.0000000000
     17691       152  SAPE      H18Z           28.2319064062       20.5468267126       -1.8871609342  MEMB      152             0.0000000000
     17692       153  SAPC      N             -30.2348795899       -7.9548755893      -21.5449981577  MEMB      153             0.0000000000
     17693       153  SAPC      C12           -31.3991136368       -7.0639355099      -21.6628285663  MEMB      153             0.0000000000
     17694       153  SAPC      H12A          -32.1749940332       -7.6323075427      -22.1541157922  MEMB      153             0.0000000000
     17695       153  SAPC      H12B          -31.0636753825       -6.2971274034      -22.3453872599  MEMB      153             0.0000000000
     17696       153  SAPC      C13           -30.4864170014       -8.9116087868      -20.4503203249  MEMB      153             0.0000000000
     17697       153  SAPC      H13A          -30.6454192529       -8.3592698630      -19.5359680499  MEMB      153             0.0000000000
     17698       153  SAPC      H13B          -31.3387417879       -9.5478635200      -20.6377303248  MEMB      153             0.0000000000
     17699       153  SAPC      H13C          -29.6192491947       -9.5522708328      -20.3872959008  MEMB      153             0.0000000000
     17700       153  SAPC      C14           -30.0382844660       -8.6879867085      -22.8966208116  MEMB      153             0.0000000000
     17701       153  SAPC      H14A          -29.0326446389       -9.0817546656      -22.9025474088  MEMB      153             0.0000000000
     17702       153  SAPC      H14B          -30.7673667637       -9.4837535986      -22.9365457831  MEMB      153             0.0000000000
     17703       153  SAPC      H14C          -30.2395337445       -7.9623241175      -23.6707735061  MEMB      153             0.0000000000
     17704       153  SAPC      C15           -28.9895772590       -7.1625964788      -21.4047664717  MEMB      153             0.0000000000
     17705       153  SAPC      H15A          -29.0693037720       -6.3297307011      -22.0876853623  MEMB      153             0.0000000000
     17706       153  SAPC      H15B          -29.0929565303       -6.6677173833      -20.4504041466  MEMB      153             0.0000000000
     17707       153  SAPC      H15C          -28.0651059195       -7.6854465461      -21.6006755646  MEMB      153             0.0000000000
     17708       153  SAPC      C11           -31.9000979510       -6.4831411076      -20.3407378830  MEMB      153             0.0000000000
     17709       153  SAPC      H11A          -32.3420243471       -7.1950180249      -19.6111810242  MEMB      153             0.0000000000
     17710       153  SAPC      H11B          -32.7584303777       -5.9190190937      -20.7642384543  MEMB      153             0.0000000000
     17711       153  SAPC      P             -31.3057272513       -4.7856023735      -18.3562637819  MEMB      153             0.0000000000
     17712       153  SAPC      O13           -30.0689373558       -4.3037695415      -17.7410355601  MEMB      153             0.0000000000
     17713       153  SAPC      O14           -32.3507403670       -3.7667511316      -18.5492424683  MEMB      153             0.0000000000
     17714       153  SAPC      O12           -30.9372530484       -5.5473069819      -19.7518911077  MEMB      153             0.0000000000
     17715       153  SAPC      O11           -31.9354309061       -5.8496763615      -17.3012948670  MEMB      153             0.0000000000
     17716       153  SAPC      C1            -31.1608077826       -6.9383356925      -16.8161794431  MEMB      153             0.0000000000
     17717       153  SAPC      HA            -30.4431605897       -7.2106973415      -17.6193747512  MEMB      153             0.0000000000
     17718       153  SAPC      HB            -30.6621217945       -6.5194448577      -15.9160886661  MEMB      153             0.0000000000
     17719       153  SAPC      C2            -31.9907969719       -8.0559071777      -16.2489847008  MEMB      153             0.0000000000
     17720       153  SAPC      HS            -32.5530854225       -8.5575336757      -17.0653936287  MEMB      153             0.0000000000
     17721       153  SAPC      O21           -32.8349448233       -7.4873614843      -15.2118252463  MEMB      153             0.0000000000
     17722       153  SAPC      C21           -33.8789927722       -8.1126584142      -14.8593628237  MEMB      153             0.0000000000
     17723       153  SAPC      O22           -34.4126891350       -9.0799620255      -15.3941803598  MEMB      153             0.0000000000
     17724       153  SAPC      C22           -34.3395553400       -7.3966121140      -13.6200730677  MEMB      153             0.0000000000
     17725       153  SAPC      H2R           -34.7856285442       -6.4322880778      -13.9447558689  MEMB      153             0.0000000000
     17726       153  SAPC      H2S           -35.1276361018       -8.0201199713      -13.1462712327  MEMB      153             0.0000000000
     17727       153  SAPC      C3            -31.1091740034       -9.2349597705      -15.5701156777  MEMB      153             0.0000000000
     17728       153  SAPC      HX            -30.5669243151       -9.9059872844      -16.2701214578  MEMB      153             0.0000000000
     17729       153  SAPC      HY            -31.7471302847       -9.9765497467      -15.0434498533  MEMB      153             0.0000000000
     17730       153  SAPC      O31           -30.2958341672       -8.7138881062      -14.5472583634  MEMB      153             0.0000000000
     17731       153  SAPC      C31           -28.9902730373       -8.5057912269      -14.8356969949  MEMB      153             0.0000000000
     17732       153  SAPC      O32           -28.3831132572       -8.7247765715      -15.8583210119  MEMB      153             0.0000000000
     17733       153  SAPC      C32           -28.2841602913       -7.8606715135      -13.6363387887  MEMB      153             0.0000000000
     17734       153  SAPC      H2X           -27.3164135590       -7.5070185215      -14.0519309239  MEMB      153             0.0000000000
     17735       153  SAPC      H2Y           -27.8961549262       -8.6211969609      -12.9254419817  MEMB      153             0.0000000000
     17736       153  SAPC      C23           -33.2762631709       -7.2766217460      -12.6491080548  MEMB      153             0.0000000000
     17737       153  SAPC      H3R           -33.5530066185       -6.5816458442      -11.8276813149  MEMB      153             0.0000000000
     17738       153  SAPC      H3S           -32.3555986573       -6.7909268494      -13.0374357458  MEMB      153             0.0000000000
     17739       153  SAPC      C24           -32.7658565384       -8.6210792213      -12.0609588962  MEMB      153             0.0000000000
     17740       153  SAPC      H4R           -31.7665767153       -8.2796154126      -11.7157588426  MEMB      153             0.0000000000
     17741       153  SAPC      H4S           -32.6583833748       -9.3567879341      -12.8864914648  MEMB      153             0.0000000000
     17742       153  SAPC      C25           -33.6374335859       -9.1457008574      -11.0369927662  MEMB      153             0.0000000000
     17743       153  SAPC      H5R           -34.5870794956       -9.5462236738      -11.4213810963  MEMB      153             0.0000000000
     17744       153  SAPC      C26           -33.4415046907       -9.2391359843       -9.7405088177  MEMB      153             0.0000000000
     17745       153  SAPC      H6R           -34.0995439551       -9.9140894392       -9.1735682241  MEMB      153             0.0000000000
     17746       153  SAPC      C27           -32.2316552363       -8.8298008260       -8.9821222731  MEMB      153             0.0000000000
     17747       153  SAPC      H7R           -32.6072053205       -8.4713668028       -7.9998754311  MEMB      153             0.0000000000
     17748       153  SAPC      H7S           -31.7149725318       -7.9670998391       -9.4544643396  MEMB      153             0.0000000000
     17749       153  SAPC      C28           -31.3424278085      -10.0058848227       -8.7534078051  MEMB      153             0.0000000000
     17750       153  SAPC      H8R           -31.8490344734      -10.9187260026       -8.4068955594  MEMB      153             0.0000000000
     17751       153  SAPC      C29           -29.9627063820       -9.8545726561       -8.9163882512  MEMB      153             0.0000000000
     17752       153  SAPC      H9R           -29.3806157279      -10.7874947860       -8.9451472985  MEMB      153             0.0000000000
     17753       153  SAPC      C210          -29.2737094977       -8.5760881419       -9.3527160875  MEMB      153             0.0000000000
     17754       153  SAPC      H10R          -29.5144545063       -7.8515161772       -8.5456481852  MEMB      153             0.0000000000
     17755       153  SAPC      H10S          -29.5997015671       -8.1289179402      -10.3160890061  MEMB      153             0.0000000000
     17756       153  SAPC      C211          -27.8318951097       -8.9077546798       -9.5368518969  MEMB      153             0.0000000000
     17757       153  SAPC      H11R          -27.3874337870       -9.2416506435      -10.4860453653  MEMB      153             0.0000000000
     17758       153  SAPC      C212          -26.9845282158       -8.9860564667       -8.5010129279  MEMB      153             0.0000000000
     17759       153  SAPC      H12R          -25.9448385509       -9.0819279657       -8.8472132235  MEMB      153             0.0000000000
     17760       153  SAPC      C213          -27.2222728089       -8.7905378242       -6.9744170418  MEMB      153             0.0000000000
     17761       153  SAPC      H13R          -28.1307778910       -8.1652359572       -6.8404880384  MEMB      153             0.0000000000
     17762       153  SAPC      H13S          -26.3241403306       -8.3760871696       -6.4685419868  MEMB      153             0.0000000000
     17763       153  SAPC      C214          -27.4582049633      -10.0812177455       -6.2547771997  MEMB      153             0.0000000000
     17764       153  SAPC      H14R          -26.6557815497      -10.8149595210       -6.4213296867  MEMB      153             0.0000000000
     17765       153  SAPC      C215          -28.4225777867      -10.4276620856       -5.4120432275  MEMB      153             0.0000000000
     17766       153  SAPC      H15R          -28.2932384036      -11.4494278594       -5.0256923371  MEMB      153             0.0000000000
     17767       153  SAPC      C216          -29.5783008299       -9.5902535754       -4.9085322217  MEMB      153             0.0000000000
     17768       153  SAPC      H16R          -30.5652072944       -9.7913889669       -5.3774469017  MEMB      153             0.0000000000
     17769       153  SAPC      H16S          -29.3814000913       -8.5122628188       -5.0915278467  MEMB      153             0.0000000000
     17770       153  SAPC      C217          -29.7116436583       -9.8167443768       -3.4606499292  MEMB      153             0.0000000000
     17771       153  SAPC      H17R          -29.4669424076      -10.8695601093       -3.2037044482  MEMB      153             0.0000000000
     17772       153  SAPC      H17S          -30.7226822313       -9.4965816042       -3.1295655288  MEMB      153             0.0000000000
     17773       153  SAPC      C218          -28.6078277520       -9.1060827742       -2.6216007723  MEMB      153             0.0000000000
     17774       153  SAPC      H18R          -28.5973532469       -7.9953943663       -2.6457315854  MEMB      153             0.0000000000
     17775       153  SAPC      H18S          -27.6050787206       -9.4347663716       -2.9691385719  MEMB      153             0.0000000000
     17776       153  SAPC      C219          -28.7280496672       -9.3687054114       -1.0896323589  MEMB      153             0.0000000000
     17777       153  SAPC      H19R          -28.6493267872      -10.4384077544       -0.8000459715  MEMB      153             0.0000000000
     17778       153  SAPC      H19S          -29.7275011612       -9.0413811843       -0.7314750090  MEMB      153             0.0000000000
     17779       153  SAPC      C220          -27.7057949129       -8.6634498077       -0.2054998180  MEMB      153             0.0000000000
     17780       153  SAPC      H20R          -27.7486271574       -7.5566432207       -0.2919046956  MEMB      153             0.0000000000
     17781       153  SAPC      H20S          -26.6921200303       -9.0112026841       -0.4985045084  MEMB      153             0.0000000000
     17782       153  SAPC      H20T          -27.8037260386       -8.9601398714        0.8606648372  MEMB      153             0.0000000000
     17783       153  SAPC      C33           -29.0963198367       -6.6674314826      -13.0337172860  MEMB      153             0.0000000000
     17784       153  SAPC      H3X           -30.0278214660       -7.0165083966      -12.5389735924  MEMB      153             0.0000000000
     17785       153  SAPC      H3Y           -29.4452876784       -5.8862015336      -13.7423934997  MEMB      153             0.0000000000
     17786       153  SAPC      C34           -28.2714000885       -5.7324703011      -12.1157487707  MEMB      153             0.0000000000
     17787       153  SAPC      H4X           -27.3269514678       -5.4593008800      -12.6331618791  MEMB      153             0.0000000000
     17788       153  SAPC      H4Y           -28.0139538823       -6.3103875717      -11.2024829091  MEMB      153             0.0000000000
     17789       153  SAPC      C35           -29.0395582409       -4.3828954120      -11.7927346489  MEMB      153             0.0000000000
     17790       153  SAPC      H5X           -28.9608302020       -3.7149013680      -12.6769898735  MEMB      153             0.0000000000
     17791       153  SAPC      H5Y           -28.4809518716       -3.8268658813      -11.0097202723  MEMB      153             0.0000000000
     17792       153  SAPC      C36           -30.5096011910       -4.5401059596      -11.4040411344  MEMB      153             0.0000000000
     17793       153  SAPC      H6X           -30.7938051438       -5.4720099220      -10.8700899638  MEMB      153             0.0000000000
     17794       153  SAPC      H6Y           -31.1410436388       -4.5326522429      -12.3181230573  MEMB      153             0.0000000000
     17795       153  SAPC      C37           -30.9361515109       -3.4303363553      -10.5386278140  MEMB      153             0.0000000000
     17796       153  SAPC      H7X           -30.8585712772       -2.4391636577      -11.0344899566  MEMB      153             0.0000000000
     17797       153  SAPC      H7Y           -30.1615161482       -3.3862404366       -9.7434442364  MEMB      153             0.0000000000
     17798       153  SAPC      C38           -32.4231647321       -3.4614892017      -10.2362065601  MEMB      153             0.0000000000
     17799       153  SAPC      H8X           -32.9904413215       -3.8389357607      -11.1137328165  MEMB      153             0.0000000000
     17800       153  SAPC      H8Y           -32.6733169781       -2.4146783341       -9.9606485597  MEMB      153             0.0000000000
     17801       153  SAPC      C39           -32.7213690424       -4.5382789893       -9.0974118554  MEMB      153             0.0000000000
     17802       153  SAPC      H9X           -32.3271475577       -5.5354720234       -9.3881287629  MEMB      153             0.0000000000
     17803       153  SAPC      H9Y           -33.8306025230       -4.5259931772       -9.0360040830  MEMB      153             0.0000000000
     17804       153  SAPC      C310          -32.2153484403       -4.2548836932       -7.6923118963  MEMB      153             0.0000000000
     17805       153  SAPC      H10X          -32.5176835743       -3.2916992541       -7.2284255451  MEMB      153             0.0000000000
     17806       153  SAPC      H10Y          -31.1051654525       -4.2354570790       -7.6543986952  MEMB      153             0.0000000000
     17807       153  SAPC      C311          -32.7193901626       -5.3383262393       -6.7108763304  MEMB      153             0.0000000000
     17808       153  SAPC      H11X          -32.1689136220       -6.2617451912       -6.9912223707  MEMB      153             0.0000000000
     17809       153  SAPC      H11Y          -33.8204505522       -5.4570803576       -6.7996724166  MEMB      153             0.0000000000
     17810       153  SAPC      C312          -32.3751975745       -4.9713316640       -5.2807898818  MEMB      153             0.0000000000
     17811       153  SAPC      H12X          -32.8354998357       -3.9902584113       -5.0359666930  MEMB      153             0.0000000000
     17812       153  SAPC      H12Y          -31.2701391516       -4.8682785091       -5.2303234849  MEMB      153             0.0000000000
     17813       153  SAPC      C313          -32.6777896544       -6.0408177986       -4.2447007619  MEMB      153             0.0000000000
     17814       153  SAPC      H13X          -32.3051373965       -7.0453952628       -4.5384280974  MEMB      153             0.0000000000
     17815       153  SAPC      H13Y          -33.7632249137       -6.1408694456       -4.0298964394  MEMB      153             0.0000000000
     17816       153  SAPC      C314          -31.8306617506       -5.9348916771       -2.9374484456  MEMB      153             0.0000000000
     17817       153  SAPC      H14X          -31.6482722619       -4.9322320706       -2.4950356990  MEMB      153             0.0000000000
     17818       153  SAPC      H14Y          -30.8279263600       -6.2954263578       -3.2518654139  MEMB      153             0.0000000000
     17819       153  SAPC      C315          -32.3484187647       -6.7679391192       -1.7382572852  MEMB      153             0.0000000000
     17820       153  SAPC      H15X          -32.0244503493       -7.8235507938       -1.8609333344  MEMB      153             0.0000000000
     17821       153  SAPC      H15Y          -33.4529639034       -6.7053469440       -1.6363587780  MEMB      153             0.0000000000
     17822       153  SAPC      C316          -31.6109444322       -6.5205742127       -0.3958793574  MEMB      153             0.0000000000
     17823       153  SAPC      H16X          -30.5309430750       -6.6110296505       -0.6402891040  MEMB      153             0.0000000000
     17824       153  SAPC      H16Y          -31.9630685233       -7.2878248627        0.3263779201  MEMB      153             0.0000000000
     17825       153  SAPC      C317          -31.8489597226       -5.1249060010        0.2107354965  MEMB      153             0.0000000000
     17826       153  SAPC      H17X          -32.8936470127       -4.7848240670        0.3759440827  MEMB      153             0.0000000000
     17827       153  SAPC      H17Y          -31.3245318483       -4.3175989952       -0.3438367921  MEMB      153             0.0000000000
     17828       153  SAPC      C318          -31.1931725275       -5.1167617423        1.5749671780  MEMB      153             0.0000000000
     17829       153  SAPC      H18X          -30.1647338988       -5.5194183276        1.4545412527  MEMB      153             0.0000000000
     17830       153  SAPC      H18Y          -31.7433581604       -5.8415659000        2.2123656827  MEMB      153             0.0000000000
     17831       153  SAPC      H18Z          -31.2278036050       -4.0871028533        1.9908093453  MEMB      153             0.0000000000
     17832       154  SAPS      N              33.5174959211        3.7093788340      -21.4327485131  MEMB      154             0.0000000000
     17833       154  SAPS      HN1            34.2215357685        4.0696358418      -20.7573649269  MEMB      154             0.0000000000
     17834       154  SAPS      HN2            34.0156651715        3.2376209311      -22.2143313252  MEMB      154             0.0000000000
     17835       154  SAPS      HN3            32.9868248123        4.5049985770      -21.8413770731  MEMB      154             0.0000000000
     17836       154  SAPS      C12            32.6080817676        2.8107100414      -20.6982651854  MEMB      154             0.0000000000
     17837       154  SAPS      H12A           31.8444410359        2.4635571172      -21.3785135288  MEMB      154             0.0000000000
     17838       154  SAPS      C13            33.2774976247        1.5037416117      -20.0594912998  MEMB      154             0.0000000000
     17839       154  SAPS      O13A           34.5222428567        1.3309539220      -20.3187037945  MEMB      154             0.0000000000
     17840       154  SAPS      O13B           32.4473237579        0.6458946544      -19.6334581136  MEMB      154             0.0000000000
     17841       154  SAPS      C11            31.9839589113        3.6779184986      -19.5361187585  MEMB      154             0.0000000000
     17842       154  SAPS      H11A           31.7634240487        4.6737679290      -19.9765380974  MEMB      154             0.0000000000
     17843       154  SAPS      H11B           32.6839788302        3.8169598865      -18.6846725430  MEMB      154             0.0000000000
     17844       154  SAPS      P              29.5110536755        2.8100303333      -19.7376742996  MEMB      154             0.0000000000
     17845       154  SAPS      O13            29.5548478659        3.7527039542      -20.9108847729  MEMB      154             0.0000000000
     17846       154  SAPS      O14            29.2214881547        1.3586365270      -20.0344305854  MEMB      154             0.0000000000
     17847       154  SAPS      O12            30.9114609380        2.8740987102      -18.9754902441  MEMB      154             0.0000000000
     17848       154  SAPS      O11            28.5438361230        3.4435070978      -18.6627344151  MEMB      154             0.0000000000
     17849       154  SAPS      C1             27.9123868182        2.5848307538      -17.7228924093  MEMB      154             0.0000000000
     17850       154  SAPS      HA             26.9142731205        3.0727630286      -17.7263607095  MEMB      154             0.0000000000
     17851       154  SAPS      HB             27.8015571052        1.5140210002      -17.9974906364  MEMB      154             0.0000000000
     17852       154  SAPS      C2             28.6085731902        2.8076932741      -16.3755387210  MEMB      154             0.0000000000
     17853       154  SAPS      HS             28.6531900522        3.8717568939      -16.0591542305  MEMB      154             0.0000000000
     17854       154  SAPS      O21            29.9120474260        2.2599065231      -16.4433701188  MEMB      154             0.0000000000
     17855       154  SAPS      C21            30.8177191738        2.7963529594      -15.5802917581  MEMB      154             0.0000000000
     17856       154  SAPS      O22            30.6671181874        3.6176486661      -14.7678234286  MEMB      154             0.0000000000
     17857       154  SAPS      C22            32.2104193147        2.2655610746      -15.9269704886  MEMB      154             0.0000000000
     17858       154  SAPS      H2R            32.2259248373        1.6406225231      -16.8454107698  MEMB      154             0.0000000000
     17859       154  SAPS      H2S            32.8085750846        3.1740900631      -16.1530364076  MEMB      154             0.0000000000
     17860       154  SAPS      C3             27.7822235579        2.0407146141      -15.3295970523  MEMB      154             0.0000000000
     17861       154  SAPS      HX             27.5797406227        1.0233945770      -15.7275688719  MEMB      154             0.0000000000
     17862       154  SAPS      HY             26.8519575504        2.6227540342      -15.1559415532  MEMB      154             0.0000000000
     17863       154  SAPS      O31            28.4692326051        1.8167740435      -14.0316350947  MEMB      154             0.0000000000
     17864       154  SAPS      C31            28.8780087117        0.5392600352      -13.8023959179  MEMB      154             0.0000000000
     17865       154  SAPS      O32            29.0278181281       -0.3004727787      -14.6015478333  MEMB      154             0.0000000000
     17866       154  SAPS      C32            29.2541498612        0.4973327100      -12.3720934163  MEMB      154             0.0000000000
     17867       154  SAPS      H2X            28.3353261327        0.6660254266      -11.7707395560  MEMB      154             0.0000000000
     17868       154  SAPS      H2Y            29.8231141248        1.4322606913      -12.1810167890  MEMB      154             0.0000000000
     17869       154  SAPS      C23            32.9232790077        1.4095294129      -14.7944580769  MEMB      154             0.0000000000
     17870       154  SAPS      H3R            32.5075852770        0.3945821778      -14.9716636037  MEMB      154             0.0000000000
     17871       154  SAPS      H3S            32.6028814515        1.8032840684      -13.8062152520  MEMB      154             0.0000000000
     17872       154  SAPS      C24            34.4633871521        1.4711027940      -14.8976188816  MEMB      154             0.0000000000
     17873       154  SAPS      H4R            34.8556506840        2.4731132978      -15.1740700252  MEMB      154             0.0000000000
     17874       154  SAPS      H4S            34.6999767459        0.9080132710      -15.8256687444  MEMB      154             0.0000000000
     17875       154  SAPS      C25            35.2895503403        0.8549758494      -13.8234978515  MEMB      154             0.0000000000
     17876       154  SAPS      H5R            35.7285721058       -0.0649388838      -14.2370399197  MEMB      154             0.0000000000
     17877       154  SAPS      C26            35.4288167548        1.1786410976      -12.4581618839  MEMB      154             0.0000000000
     17878       154  SAPS      H6R            36.1598994431        0.5189827188      -11.9678874489  MEMB      154             0.0000000000
     17879       154  SAPS      C27            34.8188963575        2.1832625552      -11.5545923169  MEMB      154             0.0000000000
     17880       154  SAPS      H7R            34.5287230308        1.6021410974      -10.6532497796  MEMB      154             0.0000000000
     17881       154  SAPS      H7S            33.8883945473        2.5500879482      -12.0382516787  MEMB      154             0.0000000000
     17882       154  SAPS      C28            35.8248932756        3.3126914506      -11.2806962874  MEMB      154             0.0000000000
     17883       154  SAPS      H8R            36.9109615861        3.1413018023      -11.3135778042  MEMB      154             0.0000000000
     17884       154  SAPS      C29            35.4563506035        4.4856083998      -10.8292028018  MEMB      154             0.0000000000
     17885       154  SAPS      H9R            36.3693564107        5.0182275349      -10.5246753505  MEMB      154             0.0000000000
     17886       154  SAPS      C210           34.0568274192        5.0356435747      -10.4628563940  MEMB      154             0.0000000000
     17887       154  SAPS      H10R           33.2463916237        4.3122656175      -10.6957507354  MEMB      154             0.0000000000
     17888       154  SAPS      H10S           33.8924776025        5.9504911728      -11.0714319890  MEMB      154             0.0000000000
     17889       154  SAPS      C211           33.9653131542        5.5354144809       -9.0227814503  MEMB      154             0.0000000000
     17890       154  SAPS      H11R           34.7164986756        6.2528054336       -8.6607447501  MEMB      154             0.0000000000
     17891       154  SAPS      C212           33.0605559831        5.2087915539       -8.1335706124  MEMB      154             0.0000000000
     17892       154  SAPS      H12R           33.1921819727        5.6301211115       -7.1260212970  MEMB      154             0.0000000000
     17893       154  SAPS      C213           31.8941357724        4.2176759086       -8.2698487075  MEMB      154             0.0000000000
     17894       154  SAPS      H13R           31.2628343299        4.5064062178       -9.1372671725  MEMB      154             0.0000000000
     17895       154  SAPS      H13S           31.2850817189        4.3442349007       -7.3493291373  MEMB      154             0.0000000000
     17896       154  SAPS      C214           32.3044402603        2.7774707174       -8.4481211398  MEMB      154             0.0000000000
     17897       154  SAPS      H14R           32.3937778384        2.3433556156       -9.4548794915  MEMB      154             0.0000000000
     17898       154  SAPS      C215           32.5979010916        1.9390184675       -7.4297677363  MEMB      154             0.0000000000
     17899       154  SAPS      H15R           32.6878782822        0.8552757450       -7.5953145775  MEMB      154             0.0000000000
     17900       154  SAPS      C216           32.6502755681        2.1500480108       -5.9086375459  MEMB      154             0.0000000000
     17901       154  SAPS      H16R           31.7532078239        1.6444427967       -5.4915604914  MEMB      154             0.0000000000
     17902       154  SAPS      H16S           32.6752107825        3.1975648411       -5.5393035009  MEMB      154             0.0000000000
     17903       154  SAPS      C217           34.0425130828        1.6817709321       -5.4014676534  MEMB      154             0.0000000000
     17904       154  SAPS      H17R           34.7142903939        2.5039110254       -5.7287621602  MEMB      154             0.0000000000
     17905       154  SAPS      H17S           34.2144609326        0.7374871815       -5.9610058406  MEMB      154             0.0000000000
     17906       154  SAPS      C218           34.0484987886        1.5704238709       -3.8965566069  MEMB      154             0.0000000000
     17907       154  SAPS      H18R           33.0099237821        1.3986059005       -3.5413650819  MEMB      154             0.0000000000
     17908       154  SAPS      H18S           34.3850282140        2.5511327781       -3.4974591861  MEMB      154             0.0000000000
     17909       154  SAPS      C219           35.0852311530        0.5881695856       -3.2963554131  MEMB      154             0.0000000000
     17910       154  SAPS      H19R           36.0692098813        0.6304169152       -3.8104769690  MEMB      154             0.0000000000
     17911       154  SAPS      H19S           34.7706375108       -0.4548273625       -3.5143213716  MEMB      154             0.0000000000
     17912       154  SAPS      C220           35.1892336703        0.8208908814       -1.8329708318  MEMB      154             0.0000000000
     17913       154  SAPS      H20R           35.6255885753       -0.0588433924       -1.3133715870  MEMB      154             0.0000000000
     17914       154  SAPS      H20S           34.1696390963        1.0913013986       -1.4842211231  MEMB      154             0.0000000000
     17915       154  SAPS      H20T           35.8419106228        1.7164899515       -1.7540009222  MEMB      154             0.0000000000
     17916       154  SAPS      C33            29.9929932559       -0.8240200454      -12.0179460149  MEMB      154             0.0000000000
     17917       154  SAPS      H3X            30.9917279872       -0.8122029502      -12.5044750199  MEMB      154             0.0000000000
     17918       154  SAPS      H3Y            29.3814172001       -1.6885664620      -12.3538856355  MEMB      154             0.0000000000
     17919       154  SAPS      C34            30.1667676499       -0.9105337458      -10.4870062385  MEMB      154             0.0000000000
     17920       154  SAPS      H4X            30.3372087809        0.1189442836      -10.1056321146  MEMB      154             0.0000000000
     17921       154  SAPS      H4Y            31.0722329088       -1.4888625302      -10.2041818389  MEMB      154             0.0000000000
     17922       154  SAPS      C35            28.8501802257       -1.5372294082       -9.8791452145  MEMB      154             0.0000000000
     17923       154  SAPS      H5X            28.9081199610       -2.6167256490      -10.1353706573  MEMB      154             0.0000000000
     17924       154  SAPS      H5Y            27.9665719729       -1.1269995009      -10.4132504073  MEMB      154             0.0000000000
     17925       154  SAPS      C36            28.7012737586       -1.4592001843       -8.3680957735  MEMB      154             0.0000000000
     17926       154  SAPS      H6X            29.4829585903       -2.0733294043       -7.8719761271  MEMB      154             0.0000000000
     17927       154  SAPS      H6Y            27.7586354945       -1.9576043499       -8.0560907920  MEMB      154             0.0000000000
     17928       154  SAPS      C37            28.7357748576        0.0406848029       -7.8739447002  MEMB      154             0.0000000000
     17929       154  SAPS      H7X            27.8926142362        0.5508950095       -8.3868636078  MEMB      154             0.0000000000
     17930       154  SAPS      H7Y            29.7379794021        0.4366829207       -8.1443002364  MEMB      154             0.0000000000
     17931       154  SAPS      C38            28.4258274497        0.0787178170       -6.3905507315  MEMB      154             0.0000000000
     17932       154  SAPS      H8X            29.0514758876       -0.7156764593       -5.9303091559  MEMB      154             0.0000000000
     17933       154  SAPS      H8Y            27.3653260226       -0.1862546314       -6.1919382945  MEMB      154             0.0000000000
     17934       154  SAPS      C39            28.6859658388        1.3853697704       -5.6994138811  MEMB      154             0.0000000000
     17935       154  SAPS      H9X            28.2643782222        2.1241215838       -6.4141380847  MEMB      154             0.0000000000
     17936       154  SAPS      H9Y            29.7701375038        1.5430566742       -5.5149484544  MEMB      154             0.0000000000
     17937       154  SAPS      C310           27.9137776212        1.4897054357       -4.4162990954  MEMB      154             0.0000000000
     17938       154  SAPS      H10X           28.2684769421        0.7104567516       -3.7082858423  MEMB      154             0.0000000000
     17939       154  SAPS      H10Y           26.9250278823        1.1068401791       -4.7481258079  MEMB      154             0.0000000000
     17940       154  SAPS      C311           27.8985556022        2.8629764503       -3.7866087013  MEMB      154             0.0000000000
     17941       154  SAPS      H11X           27.2079451712        2.9400906850       -2.9197565018  MEMB      154             0.0000000000
     17942       154  SAPS      H11Y           27.3776388639        3.5508818310       -4.4864324776  MEMB      154             0.0000000000
     17943       154  SAPS      C312           29.2538219709        3.5301372484       -3.5423070128  MEMB      154             0.0000000000
     17944       154  SAPS      H12X           29.2449178734        4.5188159988       -3.0355957963  MEMB      154             0.0000000000
     17945       154  SAPS      H12Y           29.7648188980        3.7377127462       -4.5067311779  MEMB      154             0.0000000000
     17946       154  SAPS      C313           30.2440463765        2.7595565336       -2.6667126066  MEMB      154             0.0000000000
     17947       154  SAPS      H13X           31.1535513149        3.3430109159       -2.4084429557  MEMB      154             0.0000000000
     17948       154  SAPS      H13Y           30.6038410029        1.8650353462       -3.2187102207  MEMB      154             0.0000000000
     17949       154  SAPS      C314           29.6581762264        2.4546200960       -1.2712146637  MEMB      154             0.0000000000
     17950       154  SAPS      H14X           28.7822056718        1.7716331498       -1.2941346520  MEMB      154             0.0000000000
     17951       154  SAPS      H14Y           29.2434823717        3.3236757240       -0.7170564663  MEMB      154             0.0000000000
     17952       154  SAPS      C315           30.6495504685        1.7018618032       -0.3887693739  MEMB      154             0.0000000000
     17953       154  SAPS      H15X           30.4127768390        1.7788531297        0.6939736502  MEMB      154             0.0000000000
     17954       154  SAPS      H15Y           31.6612080696        2.1060326158       -0.6067509804  MEMB      154             0.0000000000
     17955       154  SAPS      C316           30.8422967058        0.1561591512       -0.6263678985  MEMB      154             0.0000000000
     17956       154  SAPS      H16X           31.0196099466       -0.0334918461       -1.7066046038  MEMB      154             0.0000000000
     17957       154  SAPS      H16Y           29.8471079148       -0.3270685669       -0.5243321468  MEMB      154             0.0000000000
     17958       154  SAPS      C317           32.0144318521       -0.6655307072        0.0852519906  MEMB      154             0.0000000000
     17959       154  SAPS      H17X           32.7617083153        0.1389553941        0.2546664742  MEMB      154             0.0000000000
     17960       154  SAPS      H17Y           32.5228777884       -1.3583676562       -0.6188640762  MEMB      154             0.0000000000
     17961       154  SAPS      C318           31.4794062768       -1.3214736632        1.2908325689  MEMB      154             0.0000000000
     17962       154  SAPS      H18X           31.3203910417       -0.6694801185        2.1762371760  MEMB      154             0.0000000000
     17963       154  SAPS      H18Y           32.0919643855       -2.1047943214        1.7863154865  MEMB      154             0.0000000000
     17964       154  SAPS      H18Z           30.4677360482       -1.7488111609        1.1228231335  MEMB      154             0.0000000000
     17965       155  SAPI      C12           -25.7776585665      -16.2166438857      -23.7787982057  MEMB      155             0.0000000000
     17966       155  SAPI      H2            -25.5124305867      -17.0926279319      -23.1490145758  MEMB      155             0.0000000000
     17967       155  SAPI      O2            -24.6920569322      -15.3091422317      -23.7307101550  MEMB      155             0.0000000000
     17968       155  SAPI      HO2           -24.8975868767      -14.4994372721      -24.2037168703  MEMB      155             0.0000000000
     17969       155  SAPI      C13           -26.0306899322      -16.6741116721      -25.2319729544  MEMB      155             0.0000000000
     17970       155  SAPI      H3            -26.7342416096      -17.5336947971      -25.2532572250  MEMB      155             0.0000000000
     17971       155  SAPI      O3            -24.8116746178      -17.1549414429      -25.8462071470  MEMB      155             0.0000000000
     17972       155  SAPI      HO3           -24.3496936015      -17.8243686111      -25.3362653027  MEMB      155             0.0000000000
     17973       155  SAPI      C14           -26.5728490334      -15.4598051718      -26.0137106167  MEMB      155             0.0000000000
     17974       155  SAPI      H4            -25.8151311344      -14.6492237610      -26.0697668137  MEMB      155             0.0000000000
     17975       155  SAPI      O4            -26.7883987291      -15.7357004682      -27.3991314997  MEMB      155             0.0000000000
     17976       155  SAPI      HO4           -27.2186290016      -16.5933669004      -27.4293010022  MEMB      155             0.0000000000
     17977       155  SAPI      C15           -27.8521876576      -14.8636957445      -25.3856636037  MEMB      155             0.0000000000
     17978       155  SAPI      H5            -28.6197249578      -15.6663486071      -25.4165826560  MEMB      155             0.0000000000
     17979       155  SAPI      O5            -28.3144886995      -13.7965952791      -26.1363762738  MEMB      155             0.0000000000
     17980       155  SAPI      HO5           -29.2084733248      -13.6909987346      -25.8028480268  MEMB      155             0.0000000000
     17981       155  SAPI      C16           -27.5992915082      -14.4292965983      -23.9631994842  MEMB      155             0.0000000000
     17982       155  SAPI      H6            -26.8444100534      -13.6181006251      -23.8829745800  MEMB      155             0.0000000000
     17983       155  SAPI      O6            -28.7579899692      -13.8285609301      -23.3296144628  MEMB      155             0.0000000000
     17984       155  SAPI      HO6           -28.5774037547      -13.6379137086      -22.4062281043  MEMB      155             0.0000000000
     17985       155  SAPI      C11           -27.1002723043      -15.6163048041      -23.1733040291  MEMB      155             0.0000000000
     17986       155  SAPI      H1            -27.8743712537      -16.4063146351      -23.2780717682  MEMB      155             0.0000000000
     17987       155  SAPI      P             -27.6857617747      -16.1170063790      -20.6346204574  MEMB      155             0.0000000000
     17988       155  SAPI      O13           -27.2125433978      -17.5326461194      -20.6152846367  MEMB      155             0.0000000000
     17989       155  SAPI      O14           -29.1688520785      -15.9033412007      -20.8183288432  MEMB      155             0.0000000000
     17990       155  SAPI      O12           -26.8185375487      -15.2768806043      -21.8481020108  MEMB      155             0.0000000000
     17991       155  SAPI      O11           -27.1472113293      -15.3882986968      -19.3736830971  MEMB      155             0.0000000000
     17992       155  SAPI      C1            -26.8782721326      -14.0054993870      -19.4179569867  MEMB      155             0.0000000000
     17993       155  SAPI      HA            -25.7993177577      -13.8380698292      -19.2126624726  MEMB      155             0.0000000000
     17994       155  SAPI      HB            -27.0936906574      -13.4988110836      -20.3829351454  MEMB      155             0.0000000000
     17995       155  SAPI      C2            -27.7221505218      -13.1834591264      -18.4346814053  MEMB      155             0.0000000000
     17996       155  SAPI      HS            -27.1810412489      -12.2287974299      -18.2610647128  MEMB      155             0.0000000000
     17997       155  SAPI      O21           -27.7995574940      -13.9485293463      -17.2084056815  MEMB      155             0.0000000000
     17998       155  SAPI      C21           -26.8078835727      -14.4178847865      -16.5079144622  MEMB      155             0.0000000000
     17999       155  SAPI      O22           -25.6276931693      -14.1553433917      -16.6021535210  MEMB      155             0.0000000000
     18000       155  SAPI      C22           -27.3662521593      -15.4560644064      -15.5325498472  MEMB      155             0.0000000000
     18001       155  SAPI      H2R           -26.6651139686      -15.5081859747      -14.6723118888  MEMB      155             0.0000000000
     18002       155  SAPI      H2S           -28.3103957149      -15.0046466092      -15.1595407167  MEMB      155             0.0000000000
     18003       155  SAPI      C3            -29.1707397841      -12.9654381108      -18.8573425886  MEMB      155             0.0000000000
     18004       155  SAPI      HX            -29.6425790821      -13.9330416616      -19.1319918991  MEMB      155             0.0000000000
     18005       155  SAPI      HY            -29.3070526104      -12.3547187063      -19.7753630420  MEMB      155             0.0000000000
     18006       155  SAPI      O31           -29.8579764287      -12.2590628610      -17.8107389443  MEMB      155             0.0000000000
     18007       155  SAPI      C31           -30.6531194584      -12.9979375677      -17.0141966552  MEMB      155             0.0000000000
     18008       155  SAPI      O32           -31.1000971384      -14.1578085146      -17.2408268650  MEMB      155             0.0000000000
     18009       155  SAPI      C32           -30.9916046385      -12.1788872527      -15.8444937462  MEMB      155             0.0000000000
     18010       155  SAPI      H2X           -31.4880183457      -11.2589752345      -16.2208665586  MEMB      155             0.0000000000
     18011       155  SAPI      H2Y           -29.9846824515      -11.9120683523      -15.4581827429  MEMB      155             0.0000000000
     18012       155  SAPI      C23           -27.5618343643      -16.7738250311      -16.2819238981  MEMB      155             0.0000000000
     18013       155  SAPI      H3R           -26.6586293221      -17.0929933017      -16.8446612206  MEMB      155             0.0000000000
     18014       155  SAPI      H3S           -28.4198520113      -16.6843121486      -16.9820053511  MEMB      155             0.0000000000
     18015       155  SAPI      C24           -27.9161325051      -17.8868162503      -15.3198670770  MEMB      155             0.0000000000
     18016       155  SAPI      H4R           -27.1453869585      -17.8798830942      -14.5197271641  MEMB      155             0.0000000000
     18017       155  SAPI      H4S           -27.6836870670      -18.9007359793      -15.7100680357  MEMB      155             0.0000000000
     18018       155  SAPI      C25           -29.3933055165      -17.7680962962      -14.7839828875  MEMB      155             0.0000000000
     18019       155  SAPI      H5R           -30.2722468276      -18.0879805975      -15.3628922304  MEMB      155             0.0000000000
     18020       155  SAPI      C26           -29.7069345892      -17.4121316973      -13.5841740696  MEMB      155             0.0000000000
     18021       155  SAPI      H6R           -30.7684407189      -17.4218410198      -13.2958855157  MEMB      155             0.0000000000
     18022       155  SAPI      C27           -28.7142918315      -17.0285392336      -12.5346156781  MEMB      155             0.0000000000
     18023       155  SAPI      H7R           -29.1762095964      -16.1853038018      -11.9779227128  MEMB      155             0.0000000000
     18024       155  SAPI      H7S           -27.8552780331      -16.5035310427      -13.0044911534  MEMB      155             0.0000000000
     18025       155  SAPI      C28           -28.2682967429      -18.0842890985      -11.4606962956  MEMB      155             0.0000000000
     18026       155  SAPI      H8R           -27.9855671962      -19.0583148084      -11.8865340454  MEMB      155             0.0000000000
     18027       155  SAPI      C29           -28.2713607539      -18.1128898840      -10.1227224407  MEMB      155             0.0000000000
     18028       155  SAPI      H9R           -27.8006249276      -19.0099762498       -9.6941852173  MEMB      155             0.0000000000
     18029       155  SAPI      C210          -28.7822472584      -17.0448009651       -9.1225965953  MEMB      155             0.0000000000
     18030       155  SAPI      H10R          -29.8675562975      -16.8491886916       -9.2573603780  MEMB      155             0.0000000000
     18031       155  SAPI      H10S          -28.2460839110      -16.0733294415       -9.1782093723  MEMB      155             0.0000000000
     18032       155  SAPI      C211          -28.4663367428      -17.5151764481       -7.7080969319  MEMB      155             0.0000000000
     18033       155  SAPI      H11R          -27.5019829255      -18.0069828055       -7.5127814408  MEMB      155             0.0000000000
     18034       155  SAPI      C212          -29.2038958591      -17.2135565190       -6.6059153763  MEMB      155             0.0000000000
     18035       155  SAPI      H12R          -28.8485247647      -17.6456588659       -5.6588157828  MEMB      155             0.0000000000
     18036       155  SAPI      C213          -30.5102120984      -16.4386748110       -6.6043076313  MEMB      155             0.0000000000
     18037       155  SAPI      H13R          -30.8596868048      -16.6166354734       -5.5648280242  MEMB      155             0.0000000000
     18038       155  SAPI      H13S          -31.2174500121      -16.9117029660       -7.3187170639  MEMB      155             0.0000000000
     18039       155  SAPI      C214          -30.3682062407      -14.9630095820       -6.9081831134  MEMB      155             0.0000000000
     18040       155  SAPI      H14R          -30.2249457780      -14.8043422231       -7.9872111583  MEMB      155             0.0000000000
     18041       155  SAPI      C215          -30.4775833091      -13.9922292622       -5.9958152225  MEMB      155             0.0000000000
     18042       155  SAPI      H15R          -30.4085594899      -12.9300627178       -6.2733718126  MEMB      155             0.0000000000
     18043       155  SAPI      C216          -30.7371542911      -14.0866483405       -4.5014922259  MEMB      155             0.0000000000
     18044       155  SAPI      H16R          -31.5600601004      -14.7982788869       -4.2762614388  MEMB      155             0.0000000000
     18045       155  SAPI      H16S          -31.0200547694      -13.0449519183       -4.2385149955  MEMB      155             0.0000000000
     18046       155  SAPI      C217          -29.6032011663      -14.4701282550       -3.5753226131  MEMB      155             0.0000000000
     18047       155  SAPI      H17R          -29.0987329389      -13.5518799478       -3.2056574114  MEMB      155             0.0000000000
     18048       155  SAPI      H17S          -28.8647989686      -15.0813560163       -4.1370027828  MEMB      155             0.0000000000
     18049       155  SAPI      C218          -29.9920347319      -15.1508216970       -2.2722827266  MEMB      155             0.0000000000
     18050       155  SAPI      H18R          -30.7660487778      -14.5370143558       -1.7638902099  MEMB      155             0.0000000000
     18051       155  SAPI      H18S          -29.1203917418      -15.1170003302       -1.5842313150  MEMB      155             0.0000000000
     18052       155  SAPI      C219          -30.5078416877      -16.5639606160       -2.2668246673  MEMB      155             0.0000000000
     18053       155  SAPI      H19R          -31.3587849069      -16.6280705065       -2.9782357957  MEMB      155             0.0000000000
     18054       155  SAPI      H19S          -30.9760775923      -16.7985839883       -1.2870146078  MEMB      155             0.0000000000
     18055       155  SAPI      C220          -29.5928044409      -17.6792955276       -2.6789931471  MEMB      155             0.0000000000
     18056       155  SAPI      H20R          -30.1716641723      -18.6271986400       -2.7058651571  MEMB      155             0.0000000000
     18057       155  SAPI      H20S          -28.7223943928      -17.8428051162       -2.0081947409  MEMB      155             0.0000000000
     18058       155  SAPI      H20T          -29.1179088767      -17.6120401487       -3.6811270115  MEMB      155             0.0000000000
     18059       155  SAPI      C33           -31.8306818732      -12.8946358359      -14.8393960036  MEMB      155             0.0000000000
     18060       155  SAPI      H3X           -31.2939182543      -13.7769088465      -14.4297619936  MEMB      155             0.0000000000
     18061       155  SAPI      H3Y           -32.7474195537      -13.3087406370      -15.3110208291  MEMB      155             0.0000000000
     18062       155  SAPI      C34           -32.2762380378      -11.9058514033      -13.7167716009  MEMB      155             0.0000000000
     18063       155  SAPI      H4X           -33.1509834156      -12.3392614654      -13.1863969534  MEMB      155             0.0000000000
     18064       155  SAPI      H4Y           -32.7036697059      -10.9976909539      -14.1930780883  MEMB      155             0.0000000000
     18065       155  SAPI      C35           -31.1237045888      -11.6454675637      -12.7059943548  MEMB      155             0.0000000000
     18066       155  SAPI      H5X           -31.3354573591      -10.6813847518      -12.1960670829  MEMB      155             0.0000000000
     18067       155  SAPI      H5Y           -30.1141817864      -11.5522079433      -13.1604028731  MEMB      155             0.0000000000
     18068       155  SAPI      C36           -30.9505063883      -12.6960208279      -11.5757519752  MEMB      155             0.0000000000
     18069       155  SAPI      H6X           -30.4544165823      -13.6063119114      -11.9752336618  MEMB      155             0.0000000000
     18070       155  SAPI      H6Y           -31.9246631273      -12.8714262716      -11.0712002057  MEMB      155             0.0000000000
     18071       155  SAPI      C37           -30.0714773427      -12.0751293972      -10.4697700891  MEMB      155             0.0000000000
     18072       155  SAPI      H7X           -30.0551202770      -12.8743560304       -9.6982190241  MEMB      155             0.0000000000
     18073       155  SAPI      H7Y           -30.6553048093      -11.2916241312       -9.9410112888  MEMB      155             0.0000000000
     18074       155  SAPI      C38           -28.7451783930      -11.5084849740      -10.9046177576  MEMB      155             0.0000000000
     18075       155  SAPI      H8X           -28.2152713711      -11.1645941895       -9.9906927026  MEMB      155             0.0000000000
     18076       155  SAPI      H8Y           -28.9525924233      -10.6061165103      -11.5186462769  MEMB      155             0.0000000000
     18077       155  SAPI      C39           -27.7164878960      -12.4556907270      -11.5984243725  MEMB      155             0.0000000000
     18078       155  SAPI      H9X           -26.7234546333      -11.9608661244      -11.6563405387  MEMB      155             0.0000000000
     18079       155  SAPI      H9Y           -28.2421362200      -12.6435464466      -12.5590100988  MEMB      155             0.0000000000
     18080       155  SAPI      C310          -27.3585528983      -13.9050900238      -11.0733774613  MEMB      155             0.0000000000
     18081       155  SAPI      H10X          -26.9372610675      -14.4453279276      -11.9480075393  MEMB      155             0.0000000000
     18082       155  SAPI      H10Y          -28.3260510462      -14.4106394707      -10.8667669836  MEMB      155             0.0000000000
     18083       155  SAPI      C311          -26.2712718127      -14.0120833244       -9.9595443839  MEMB      155             0.0000000000
     18084       155  SAPI      H11X          -25.3038527798      -13.5621418337      -10.2693413009  MEMB      155             0.0000000000
     18085       155  SAPI      H11Y          -26.1327219223      -15.1107150379       -9.8693597645  MEMB      155             0.0000000000
     18086       155  SAPI      C312          -26.7006883763      -13.2892071012       -8.6655017474  MEMB      155             0.0000000000
     18087       155  SAPI      H12X          -27.5831347279      -13.9111058627       -8.4031064039  MEMB      155             0.0000000000
     18088       155  SAPI      H12Y          -27.0467931763      -12.2446929326       -8.8188722019  MEMB      155             0.0000000000
     18089       155  SAPI      C313          -25.7461430192      -13.4965313392       -7.5334366182  MEMB      155             0.0000000000
     18090       155  SAPI      H13X          -24.8323549932      -12.8915827417       -7.7160543509  MEMB      155             0.0000000000
     18091       155  SAPI      H13Y          -25.4810313742      -14.5737136417       -7.4724858400  MEMB      155             0.0000000000
     18092       155  SAPI      C314          -26.2509035063      -13.1559508998       -6.1112675225  MEMB      155             0.0000000000
     18093       155  SAPI      H14X          -27.2253140832      -13.6094355700       -5.8298476335  MEMB      155             0.0000000000
     18094       155  SAPI      H14Y          -26.4700781171      -12.0677881128       -6.0645192195  MEMB      155             0.0000000000
     18095       155  SAPI      C315          -25.2162373967      -13.5554010239       -4.9975088886  MEMB      155             0.0000000000
     18096       155  SAPI      H15X          -24.4628946298      -12.7422657679       -4.9226250021  MEMB      155             0.0000000000
     18097       155  SAPI      H15Y          -24.6146852525      -14.4053191368       -5.3849295348  MEMB      155             0.0000000000
     18098       155  SAPI      C316          -25.6930788881      -13.6934416027       -3.5513381522  MEMB      155             0.0000000000
     18099       155  SAPI      H16X          -24.8026125596      -13.9491451291       -2.9381440490  MEMB      155             0.0000000000
     18100       155  SAPI      H16Y          -26.4769248861      -14.4801970985       -3.5817104003  MEMB      155             0.0000000000
     18101       155  SAPI      C317          -26.3274533834      -12.4467961746       -2.9322240543  MEMB      155             0.0000000000
     18102       155  SAPI      H17X          -27.2556505278      -12.2483355043       -3.5096173376  MEMB      155             0.0000000000
     18103       155  SAPI      H17Y          -25.6935140878      -11.5361850000       -2.9890499755  MEMB      155             0.0000000000
     18104       155  SAPI      C318          -26.7897715465      -12.6615867525       -1.4918736328  MEMB      155             0.0000000000
     18105       155  SAPI      H18X          -25.9795484146      -12.6493469538       -0.7318004329  MEMB      155             0.0000000000
     18106       155  SAPI      H18Y          -27.4592259556      -13.5371871896       -1.3523175420  MEMB      155             0.0000000000
     18107       155  SAPI      H18Z          -27.4042508655      -11.7919648033       -1.1748647914  MEMB      155             0.0000000000
     18108       156  SAPE      N              -4.7046088312       29.8961275351      -18.5458408851  MEMB      156             0.0000000000
     18109       156  SAPE      HN1            -3.6970915230       29.6401481134      -18.5772035955  MEMB      156             0.0000000000
     18110       156  SAPE      HN2            -5.0164013727       30.3487341924      -17.6629295292  MEMB      156             0.0000000000
     18111       156  SAPE      HN3            -5.2898341510       29.0705961896      -18.7858608306  MEMB      156             0.0000000000
     18112       156  SAPE      C12            -4.8757479247       31.0670206867      -19.5309077162  MEMB      156             0.0000000000
     18113       156  SAPE      H12A           -5.0413295944       30.5366320870      -20.4929843987  MEMB      156             0.0000000000
     18114       156  SAPE      H12B           -3.9294854814       31.6491137046      -19.5396326866  MEMB      156             0.0000000000
     18115       156  SAPE      C11            -6.1658463169       31.8248369487      -19.2403917684  MEMB      156             0.0000000000
     18116       156  SAPE      H11A           -6.1391179326       32.3993890646      -18.2898673827  MEMB      156             0.0000000000
     18117       156  SAPE      H11B           -6.9705583440       31.0689862688      -19.1160960338  MEMB      156             0.0000000000
     18118       156  SAPE      P              -6.0896003975       34.1308144388      -20.5445818040  MEMB      156             0.0000000000
     18119       156  SAPE      O13            -6.9333513861       34.8540142376      -21.5705178021  MEMB      156             0.0000000000
     18120       156  SAPE      O14            -6.1715236740       34.6849110472      -19.2252659502  MEMB      156             0.0000000000
     18121       156  SAPE      O12            -6.5863399504       32.5743239110      -20.3719331141  MEMB      156             0.0000000000
     18122       156  SAPE      O11            -4.6210382153       33.9215950716      -20.9705609941  MEMB      156             0.0000000000
     18123       156  SAPE      C1             -3.6743077581       34.9122070196      -20.7489200089  MEMB      156             0.0000000000
     18124       156  SAPE      HA             -2.9504717212       34.9258532503      -21.5916512803  MEMB      156             0.0000000000
     18125       156  SAPE      HB             -4.1039053810       35.9366466063      -20.7318800195  MEMB      156             0.0000000000
     18126       156  SAPE      C2             -2.7670575936       34.6950948459      -19.5236606836  MEMB      156             0.0000000000
     18127       156  SAPE      HS             -2.0225014804       33.9272303834      -19.8242289079  MEMB      156             0.0000000000
     18128       156  SAPE      O21            -3.5436525944       34.2630173474      -18.3541568268  MEMB      156             0.0000000000
     18129       156  SAPE      C21            -2.9743652217       33.6157993680      -17.4229025391  MEMB      156             0.0000000000
     18130       156  SAPE      O22            -1.8304907937       33.2536148331      -17.3197672968  MEMB      156             0.0000000000
     18131       156  SAPE      C22            -4.1074838453       33.1822089290      -16.3973551650  MEMB      156             0.0000000000
     18132       156  SAPE      H2R            -4.8082793775       33.9392925838      -15.9850069547  MEMB      156             0.0000000000
     18133       156  SAPE      H2S            -4.6766299961       32.3658361985      -16.8912470276  MEMB      156             0.0000000000
     18134       156  SAPE      C3             -2.0484627464       36.0022832933      -19.0774280157  MEMB      156             0.0000000000
     18135       156  SAPE      HX             -1.4397846917       36.3538617485      -19.9377910512  MEMB      156             0.0000000000
     18136       156  SAPE      HY             -1.2606828352       35.7739797314      -18.3280273924  MEMB      156             0.0000000000
     18137       156  SAPE      O31            -3.0153848174       36.9869893825      -18.7381381618  MEMB      156             0.0000000000
     18138       156  SAPE      C31            -3.0910252020       37.2470062904      -17.4243965411  MEMB      156             0.0000000000
     18139       156  SAPE      O32            -2.4911241532       36.7292260466      -16.5446663647  MEMB      156             0.0000000000
     18140       156  SAPE      C32            -4.4294440589       38.1123166176      -17.2397716917  MEMB      156             0.0000000000
     18141       156  SAPE      H2X            -5.2202449767       37.5691954607      -17.8001060100  MEMB      156             0.0000000000
     18142       156  SAPE      H2Y            -4.4029355983       39.1717750988      -17.5731867231  MEMB      156             0.0000000000
     18143       156  SAPE      C23            -3.4298437792       32.5814714497      -15.1683184683  MEMB      156             0.0000000000
     18144       156  SAPE      H3R            -2.5100634644       33.0980640138      -14.8198117156  MEMB      156             0.0000000000
     18145       156  SAPE      H3S            -3.0670019409       31.5860018903      -15.5025450303  MEMB      156             0.0000000000
     18146       156  SAPE      C24            -4.4556377849       32.2477586854      -14.0077785334  MEMB      156             0.0000000000
     18147       156  SAPE      H4R            -5.1222093313       33.1271446408      -13.8786132432  MEMB      156             0.0000000000
     18148       156  SAPE      H4S            -3.8372291438       32.3271059250      -13.0882154472  MEMB      156             0.0000000000
     18149       156  SAPE      C25            -5.3146330741       31.0047780533      -14.1669662114  MEMB      156             0.0000000000
     18150       156  SAPE      H5R            -4.8185244218       30.1944389765      -14.7212467474  MEMB      156             0.0000000000
     18151       156  SAPE      C26            -6.4620379323       30.8501958320      -13.5360193597  MEMB      156             0.0000000000
     18152       156  SAPE      H6R            -7.0742422434       29.9366749792      -13.5621956126  MEMB      156             0.0000000000
     18153       156  SAPE      C27            -7.0059701697       31.9074336963      -12.6081721304  MEMB      156             0.0000000000
     18154       156  SAPE      H7R            -7.6282299563       32.6080074093      -13.2050894915  MEMB      156             0.0000000000
     18155       156  SAPE      H7S            -6.0896398213       32.3929033397      -12.2094499483  MEMB      156             0.0000000000
     18156       156  SAPE      C28            -7.9915719840       31.4284849401      -11.5738973686  MEMB      156             0.0000000000
     18157       156  SAPE      H8R            -9.0715256256       31.4641017129      -11.7798873780  MEMB      156             0.0000000000
     18158       156  SAPE      C29            -7.8295366383       30.8560468531      -10.3710607490  MEMB      156             0.0000000000
     18159       156  SAPE      H9R            -8.7829838535       30.8878214587       -9.8234031078  MEMB      156             0.0000000000
     18160       156  SAPE      C210           -6.6020365441       30.5360445531       -9.5386799192  MEMB      156             0.0000000000
     18161       156  SAPE      H10R           -6.2669468974       31.4422155996       -8.9901455699  MEMB      156             0.0000000000
     18162       156  SAPE      H10S           -5.7267913411       30.3247228282      -10.1895331695  MEMB      156             0.0000000000
     18163       156  SAPE      C211           -6.8074128551       29.3044130703       -8.6600112657  MEMB      156             0.0000000000
     18164       156  SAPE      H11R           -7.5869478121       28.6053866963       -8.9971880944  MEMB      156             0.0000000000
     18165       156  SAPE      C212           -6.3206602994       29.0681449349       -7.4026108841  MEMB      156             0.0000000000
     18166       156  SAPE      H12R           -6.4935230950       28.0856926427       -6.9390300594  MEMB      156             0.0000000000
     18167       156  SAPE      C213           -5.3778054150       30.0087523740       -6.6475908126  MEMB      156             0.0000000000
     18168       156  SAPE      H13R           -5.4091613618       29.7657200820       -5.5639513666  MEMB      156             0.0000000000
     18169       156  SAPE      H13S           -5.6367322557       31.0890794350       -6.6606812248  MEMB      156             0.0000000000
     18170       156  SAPE      C214           -3.9468175345       29.9531600803       -7.0307814536  MEMB      156             0.0000000000
     18171       156  SAPE      H14R           -3.6114000282       29.4657069262       -7.9580813400  MEMB      156             0.0000000000
     18172       156  SAPE      C215           -2.9425289951       30.6712734166       -6.4252113388  MEMB      156             0.0000000000
     18173       156  SAPE      H15R           -1.8804088233       30.4533579383       -6.6107199742  MEMB      156             0.0000000000
     18174       156  SAPE      C216           -3.1067131786       31.5802711459       -5.2445057772  MEMB      156             0.0000000000
     18175       156  SAPE      H16R           -4.1181884854       32.0353821636       -5.3086358309  MEMB      156             0.0000000000
     18176       156  SAPE      H16S           -2.3580051444       32.4007554813       -5.2682281067  MEMB      156             0.0000000000
     18177       156  SAPE      C217           -2.8928582295       30.8688191852       -3.9104874354  MEMB      156             0.0000000000
     18178       156  SAPE      H17R           -1.8171125275       30.8512214607       -3.6333898183  MEMB      156             0.0000000000
     18179       156  SAPE      H17S           -3.2133344599       29.8114629023       -3.7938087643  MEMB      156             0.0000000000
     18180       156  SAPE      C218           -3.6322004606       31.6244788244       -2.8267605750  MEMB      156             0.0000000000
     18181       156  SAPE      H18R           -4.4425653536       30.9302959707       -2.5173423916  MEMB      156             0.0000000000
     18182       156  SAPE      H18S           -4.0642120799       32.5399908357       -3.2844980955  MEMB      156             0.0000000000
     18183       156  SAPE      C219           -2.9249190245       32.0984419903       -1.6069856731  MEMB      156             0.0000000000
     18184       156  SAPE      H19R           -3.5560899390       32.8725379044       -1.1204471401  MEMB      156             0.0000000000
     18185       156  SAPE      H19S           -2.0452040550       32.6139199449       -2.0482393888  MEMB      156             0.0000000000
     18186       156  SAPE      C220           -2.1768935503       31.0647372356       -0.6459107158  MEMB      156             0.0000000000
     18187       156  SAPE      H20R           -1.2464595248       30.7516433365       -1.1660890055  MEMB      156             0.0000000000
     18188       156  SAPE      H20S           -2.6155624109       30.0495019184       -0.5401380544  MEMB      156             0.0000000000
     18189       156  SAPE      H20T           -1.7969915550       31.4707518736        0.3159351719  MEMB      156             0.0000000000
     18190       156  SAPE      C33            -4.8715651595       38.2423911505      -15.7847442414  MEMB      156             0.0000000000
     18191       156  SAPE      H3X            -5.7102855719       38.9619420687      -15.6702208224  MEMB      156             0.0000000000
     18192       156  SAPE      H3Y            -4.0788953199       38.5509215243      -15.0700380088  MEMB      156             0.0000000000
     18193       156  SAPE      C34            -5.6343886998       36.9390007883      -15.4187161734  MEMB      156             0.0000000000
     18194       156  SAPE      H4X            -4.9332704084       36.1437134436      -15.7507888130  MEMB      156             0.0000000000
     18195       156  SAPE      H4Y            -6.5576548065       36.8221999201      -16.0255587843  MEMB      156             0.0000000000
     18196       156  SAPE      C35            -5.7755088883       36.7464407149      -13.9297805439  MEMB      156             0.0000000000
     18197       156  SAPE      H5X            -6.0464662851       37.7771930381      -13.6160085155  MEMB      156             0.0000000000
     18198       156  SAPE      H5Y            -4.8410009479       36.3745669348      -13.4578414357  MEMB      156             0.0000000000
     18199       156  SAPE      C36            -6.8951924287       35.8216612860      -13.5620866035  MEMB      156             0.0000000000
     18200       156  SAPE      H6X            -6.6375395896       34.7428451934      -13.6260534174  MEMB      156             0.0000000000
     18201       156  SAPE      H6Y            -7.7310585050       36.0859458123      -14.2445836601  MEMB      156             0.0000000000
     18202       156  SAPE      C37            -7.3824470544       36.1357831676      -12.1079289219  MEMB      156             0.0000000000
     18203       156  SAPE      H7X            -8.4485484026       35.8240198853      -12.0844214889  MEMB      156             0.0000000000
     18204       156  SAPE      H7Y            -7.2206107202       37.2184993398      -11.9185730519  MEMB      156             0.0000000000
     18205       156  SAPE      C38            -6.8963874286       35.2910870710      -10.9636144508  MEMB      156             0.0000000000
     18206       156  SAPE      H8X            -5.8015747458       35.4302622680      -10.8357993230  MEMB      156             0.0000000000
     18207       156  SAPE      H8Y            -6.8734553615       34.1932803303      -11.1327752071  MEMB      156             0.0000000000
     18208       156  SAPE      C39            -7.5469936308       35.7701618431       -9.6846953949  MEMB      156             0.0000000000
     18209       156  SAPE      H9X            -8.6421710256       35.8337395645       -9.8603802149  MEMB      156             0.0000000000
     18210       156  SAPE      H9Y            -6.9948760091       36.6956291043       -9.4145153201  MEMB      156             0.0000000000
     18211       156  SAPE      C310           -7.2368532972       34.8316928692       -8.5449935724  MEMB      156             0.0000000000
     18212       156  SAPE      H10X           -7.7282602509       33.8721417050       -8.8135113197  MEMB      156             0.0000000000
     18213       156  SAPE      H10Y           -7.6202608454       35.2146118574       -7.5751001393  MEMB      156             0.0000000000
     18214       156  SAPE      C311           -5.6974458240       34.5530469822       -8.3610451310  MEMB      156             0.0000000000
     18215       156  SAPE      H11X           -5.3294251788       34.0864692047       -9.2997608765  MEMB      156             0.0000000000
     18216       156  SAPE      H11Y           -5.7206289926       33.7710440872       -7.5722139483  MEMB      156             0.0000000000
     18217       156  SAPE      C312           -4.8141271098       35.6902412775       -7.9463367858  MEMB      156             0.0000000000
     18218       156  SAPE      H12X           -4.9656961690       36.5210487300       -8.6682140313  MEMB      156             0.0000000000
     18219       156  SAPE      H12Y           -3.8109397262       35.3119227063       -8.2375604444  MEMB      156             0.0000000000
     18220       156  SAPE      C313           -4.8567862236       36.2852617136       -6.5824260677  MEMB      156             0.0000000000
     18221       156  SAPE      H13X           -5.8559829572       36.6682588118       -6.2836951513  MEMB      156             0.0000000000
     18222       156  SAPE      H13Y           -4.1519561117       37.1433078181       -6.6183765430  MEMB      156             0.0000000000
     18223       156  SAPE      C314           -4.5968976669       35.2297570536       -5.4560095254  MEMB      156             0.0000000000
     18224       156  SAPE      H14X           -3.8223478310       34.5239968111       -5.8251921602  MEMB      156             0.0000000000
     18225       156  SAPE      H14Y           -5.4499668375       34.5355551063       -5.2989180565  MEMB      156             0.0000000000
     18226       156  SAPE      C315           -4.1114478205       35.9023975262       -4.1322907131  MEMB      156             0.0000000000
     18227       156  SAPE      H15X           -3.1756526133       36.4564609094       -4.3594965372  MEMB      156             0.0000000000
     18228       156  SAPE      H15Y           -3.8123927079       35.0904161897       -3.4354604778  MEMB      156             0.0000000000
     18229       156  SAPE      C316           -5.2534307545       36.7490978695       -3.5538931470  MEMB      156             0.0000000000
     18230       156  SAPE      H16X           -5.7113601650       37.5202883386       -4.2095510519  MEMB      156             0.0000000000
     18231       156  SAPE      H16Y           -4.8676128336       37.1459459884       -2.5905761868  MEMB      156             0.0000000000
     18232       156  SAPE      C317           -6.5361990948       35.8896393343       -3.1582798166  MEMB      156             0.0000000000
     18233       156  SAPE      H17X           -7.1073396871       35.5069217812       -4.0310041457  MEMB      156             0.0000000000
     18234       156  SAPE      H17Y           -7.1188298187       36.6203268002       -2.5574835827  MEMB      156             0.0000000000
     18235       156  SAPE      C318           -6.1370136831       34.8231389561       -2.2258160623  MEMB      156             0.0000000000
     18236       156  SAPE      H18X           -7.0522307234       34.4375669128       -1.7277867915  MEMB      156             0.0000000000
     18237       156  SAPE      H18Y           -5.5322904049       35.2404480487       -1.3924592820  MEMB      156             0.0000000000
     18238       156  SAPE      H18Z           -5.6483059369       34.0600801130       -2.8686437625  MEMB      156             0.0000000000
     18239       157  SAPE      N              14.9486490582      -30.8569385472      -20.2663210092  MEMB      157             0.0000000000
     18240       157  SAPE      HN1            15.1182389379      -29.9873216826      -20.8109363281  MEMB      157             0.0000000000
     18241       157  SAPE      HN2            15.8909533606      -31.2968803724      -20.2769974946  MEMB      157             0.0000000000
     18242       157  SAPE      HN3            14.3263149638      -31.5269495745      -20.7616848437  MEMB      157             0.0000000000
     18243       157  SAPE      C12            14.4008706905      -30.5574952688      -18.9512515812  MEMB      157             0.0000000000
     18244       157  SAPE      H12A           14.9536478675      -29.6564601178      -18.6093537011  MEMB      157             0.0000000000
     18245       157  SAPE      H12B           14.5598942457      -31.4945352441      -18.3759357654  MEMB      157             0.0000000000
     18246       157  SAPE      C11            12.8847453744      -30.2202889957      -18.9532001341  MEMB      157             0.0000000000
     18247       157  SAPE      H11A           12.7694716184      -29.3747838807      -19.6646451964  MEMB      157             0.0000000000
     18248       157  SAPE      H11B           12.4602881131      -29.9306793629      -17.9681705841  MEMB      157             0.0000000000
     18249       157  SAPE      P              10.9641579826      -31.1634478335      -20.4283926238  MEMB      157             0.0000000000
     18250       157  SAPE      O13            11.5641700445      -30.6198842269      -21.6482534153  MEMB      157             0.0000000000
     18251       157  SAPE      O14            10.1577248455      -32.4208497453      -20.6044077784  MEMB      157             0.0000000000
     18252       157  SAPE      O12            12.1106448553      -31.4182420556      -19.3334549762  MEMB      157             0.0000000000
     18253       157  SAPE      O11            10.0398763344      -30.0498509098      -19.8147184915  MEMB      157             0.0000000000
     18254       157  SAPE      C1              9.3756150045      -30.3056849415      -18.5614347593  MEMB      157             0.0000000000
     18255       157  SAPE      HA              8.3113514256      -30.6172756188      -18.6290765200  MEMB      157             0.0000000000
     18256       157  SAPE      HB              9.7900120027      -31.0814948697      -17.8826746683  MEMB      157             0.0000000000
     18257       157  SAPE      C2              9.2217666859      -28.9818466060      -17.9088488640  MEMB      157             0.0000000000
     18258       157  SAPE      HS              8.5279470274      -28.3767454721      -18.5307712516  MEMB      157             0.0000000000
     18259       157  SAPE      O21            10.4690438674      -28.2696469586      -17.7851849691  MEMB      157             0.0000000000
     18260       157  SAPE      C21            10.4258041336      -26.9061843098      -17.7869375990  MEMB      157             0.0000000000
     18261       157  SAPE      O22             9.4158268910      -26.2638513444      -17.8605237485  MEMB      157             0.0000000000
     18262       157  SAPE      C22            11.8424236117      -26.2633608952      -17.7609555887  MEMB      157             0.0000000000
     18263       157  SAPE      H2R            12.6779792300      -26.9947541125      -17.7960512826  MEMB      157             0.0000000000
     18264       157  SAPE      H2S            11.8762105098      -25.6381005073      -18.6786858259  MEMB      157             0.0000000000
     18265       157  SAPE      C3              8.6006914133      -29.1625538999      -16.5071705812  MEMB      157             0.0000000000
     18266       157  SAPE      HX              7.5652903912      -29.5580906158      -16.5834365484  MEMB      157             0.0000000000
     18267       157  SAPE      HY              8.4851705601      -28.2252408339      -15.9220039651  MEMB      157             0.0000000000
     18268       157  SAPE      O31             9.4226000971      -30.0749690832      -15.7186969909  MEMB      157             0.0000000000
     18269       157  SAPE      C31             8.8578364060      -30.4956291524      -14.5942860211  MEMB      157             0.0000000000
     18270       157  SAPE      O32             7.7591773140      -30.1031779390      -14.1845739058  MEMB      157             0.0000000000
     18271       157  SAPE      C32             9.6469993082      -31.6029841348      -13.9851311364  MEMB      157             0.0000000000
     18272       157  SAPE      H2X             9.7653424017      -32.5619299919      -14.5335275870  MEMB      157             0.0000000000
     18273       157  SAPE      H2Y             9.0861187347      -31.8488004037      -13.0581423571  MEMB      157             0.0000000000
     18274       157  SAPE      C23            11.9866733839      -25.3729829939      -16.5144850114  MEMB      157             0.0000000000
     18275       157  SAPE      H3R            11.1414464893      -24.7223599081      -16.2036759881  MEMB      157             0.0000000000
     18276       157  SAPE      H3S            12.8931671567      -24.7500338802      -16.6710871942  MEMB      157             0.0000000000
     18277       157  SAPE      C24            12.3785749155      -26.1698645429      -15.1440346505  MEMB      157             0.0000000000
     18278       157  SAPE      H4R            12.3524579966      -25.4436408935      -14.3036545923  MEMB      157             0.0000000000
     18279       157  SAPE      H4S            13.3236149947      -26.7418138511      -15.2627534218  MEMB      157             0.0000000000
     18280       157  SAPE      C25            11.4569713840      -27.3361255048      -14.7128438669  MEMB      157             0.0000000000
     18281       157  SAPE      H5R            11.7723004835      -28.3167465549      -15.0987837489  MEMB      157             0.0000000000
     18282       157  SAPE      C26            10.4696546633      -27.2227569754      -13.8126362175  MEMB      157             0.0000000000
     18283       157  SAPE      H6R             9.8529917194      -28.1091390424      -13.6027465219  MEMB      157             0.0000000000
     18284       157  SAPE      C27            10.0379699766      -25.9526492349      -13.0339164047  MEMB      157             0.0000000000
     18285       157  SAPE      H7R             8.9979833850      -26.0509321238      -12.6556445131  MEMB      157             0.0000000000
     18286       157  SAPE      H7S            10.0636682595      -25.0847751439      -13.7270651104  MEMB      157             0.0000000000
     18287       157  SAPE      C28            11.0559914593      -25.3824015218      -12.0578517718  MEMB      157             0.0000000000
     18288       157  SAPE      H8R            11.4218096192      -24.3748625688      -12.3049183706  MEMB      157             0.0000000000
     18289       157  SAPE      C29            11.6148524026      -26.0245039228      -11.0202674934  MEMB      157             0.0000000000
     18290       157  SAPE      H9R            12.2490304936      -25.3857007309      -10.3880114802  MEMB      157             0.0000000000
     18291       157  SAPE      C210           11.3673976549      -27.4141403246      -10.6272949593  MEMB      157             0.0000000000
     18292       157  SAPE      H10R           12.3132737853      -27.9901386240      -10.5386089476  MEMB      157             0.0000000000
     18293       157  SAPE      H10S           10.7591132448      -28.0289706303      -11.3246437802  MEMB      157             0.0000000000
     18294       157  SAPE      C211           10.6848064047      -27.4391699071       -9.2509419718  MEMB      157             0.0000000000
     18295       157  SAPE      H11R           10.9697610672      -26.5907070590       -8.6114792200  MEMB      157             0.0000000000
     18296       157  SAPE      C212            9.8326779097      -28.3023245067       -8.7259986411  MEMB      157             0.0000000000
     18297       157  SAPE      H12R            9.3665671356      -28.0464259746       -7.7630567875  MEMB      157             0.0000000000
     18298       157  SAPE      C213            9.2955046949      -29.5518792472       -9.4322748209  MEMB      157             0.0000000000
     18299       157  SAPE      H13R            9.1584184102      -29.2607120644      -10.4956423866  MEMB      157             0.0000000000
     18300       157  SAPE      H13S            8.2908378820      -29.7900883029       -9.0221257995  MEMB      157             0.0000000000
     18301       157  SAPE      C214           10.3523336037      -30.6942042143       -9.3878236583  MEMB      157             0.0000000000
     18302       157  SAPE      H14R           10.7582825629      -30.9896724737      -10.3665495710  MEMB      157             0.0000000000
     18303       157  SAPE      C215           10.7431689039      -31.3994714634       -8.2897185046  MEMB      157             0.0000000000
     18304       157  SAPE      H15R           11.3422520843      -32.2966175052       -8.5047258820  MEMB      157             0.0000000000
     18305       157  SAPE      C216           10.2369669747      -31.1611756039       -6.9362211965  MEMB      157             0.0000000000
     18306       157  SAPE      H16R            9.3655456107      -31.8209138452       -6.7369948925  MEMB      157             0.0000000000
     18307       157  SAPE      H16S            9.8074357597      -30.1944917282       -6.5965946235  MEMB      157             0.0000000000
     18308       157  SAPE      C217           11.3171323924      -31.5651875860       -5.9399549614  MEMB      157             0.0000000000
     18309       157  SAPE      H17R           12.0401946854      -30.7247421551       -6.0117401979  MEMB      157             0.0000000000
     18310       157  SAPE      H17S           11.8570722557      -32.4577846302       -6.3221294471  MEMB      157             0.0000000000
     18311       157  SAPE      C218           10.8214689614      -31.7336048519       -4.5206449338  MEMB      157             0.0000000000
     18312       157  SAPE      H18R           10.2618087908      -32.6877521163       -4.4171803055  MEMB      157             0.0000000000
     18313       157  SAPE      H18S           10.2539913450      -30.7992891119       -4.3222916139  MEMB      157             0.0000000000
     18314       157  SAPE      C219           11.9342873772      -31.7995913827       -3.4333942001  MEMB      157             0.0000000000
     18315       157  SAPE      H19R           12.5335100525      -30.8641602493       -3.4184963715  MEMB      157             0.0000000000
     18316       157  SAPE      H19S           12.5660474889      -32.6402193990       -3.7919251775  MEMB      157             0.0000000000
     18317       157  SAPE      C220           11.4423168779      -32.0341128833       -2.0091674313  MEMB      157             0.0000000000
     18318       157  SAPE      H20R           12.3050304394      -31.9717623479       -1.3119165336  MEMB      157             0.0000000000
     18319       157  SAPE      H20S           11.0121057916      -33.0544361307       -1.9187235917  MEMB      157             0.0000000000
     18320       157  SAPE      H20T           10.6971079123      -31.2533849449       -1.7456373279  MEMB      157             0.0000000000
     18321       157  SAPE      C33            11.1269240122      -31.1245199956      -13.4383584579  MEMB      157             0.0000000000
     18322       157  SAPE      H3X            11.1483426240      -30.1908556011      -12.8365838841  MEMB      157             0.0000000000
     18323       157  SAPE      H3Y            11.6690431394      -30.9514066869      -14.3925385440  MEMB      157             0.0000000000
     18324       157  SAPE      C34            11.9575954302      -32.2213463620      -12.6892447183  MEMB      157             0.0000000000
     18325       157  SAPE      H4X            11.7010004423      -33.2496499864      -13.0225189518  MEMB      157             0.0000000000
     18326       157  SAPE      H4Y            11.6655034551      -32.0887338348      -11.6255641189  MEMB      157             0.0000000000
     18327       157  SAPE      C35            13.5045996321      -32.1273426236      -12.7838834389  MEMB      157             0.0000000000
     18328       157  SAPE      H5X            13.6631428207      -31.9505514739      -13.8692082928  MEMB      157             0.0000000000
     18329       157  SAPE      H5Y            13.9586495363      -33.0581539765      -12.3817018177  MEMB      157             0.0000000000
     18330       157  SAPE      C36            14.3638553220      -30.9489551091      -12.1973019899  MEMB      157             0.0000000000
     18331       157  SAPE      H6X            13.9021409510      -30.0641677958      -12.6854537056  MEMB      157             0.0000000000
     18332       157  SAPE      H6Y            15.4070345792      -31.0728250140      -12.5589015390  MEMB      157             0.0000000000
     18333       157  SAPE      C37            14.0482340385      -30.7223226167      -10.6973896884  MEMB      157             0.0000000000
     18334       157  SAPE      H7X            14.3655140114      -31.6571822617      -10.1877898966  MEMB      157             0.0000000000
     18335       157  SAPE      H7Y            12.9624010903      -30.7372376421      -10.4627290841  MEMB      157             0.0000000000
     18336       157  SAPE      C38            14.6749838480      -29.4817600487      -10.0288682641  MEMB      157             0.0000000000
     18337       157  SAPE      H8X            14.4426450028      -28.6634986465      -10.7435627659  MEMB      157             0.0000000000
     18338       157  SAPE      H8Y            15.7583952907      -29.6951934148       -9.9064480947  MEMB      157             0.0000000000
     18339       157  SAPE      C39            14.0494022799      -29.1752022827       -8.7190934627  MEMB      157             0.0000000000
     18340       157  SAPE      H9X            14.3113195482      -29.8801845768       -7.9013402621  MEMB      157             0.0000000000
     18341       157  SAPE      H9Y            12.9415643441      -29.2039393198       -8.7977712435  MEMB      157             0.0000000000
     18342       157  SAPE      C310           14.4273170607      -27.7543435523       -8.2912605883  MEMB      157             0.0000000000
     18343       157  SAPE      H10X           13.9298033350      -26.9471457429       -8.8702528918  MEMB      157             0.0000000000
     18344       157  SAPE      H10Y           15.5077145067      -27.5832491264       -8.4856547341  MEMB      157             0.0000000000
     18345       157  SAPE      C311           14.2740250946      -27.4921007605       -6.8444369658  MEMB      157             0.0000000000
     18346       157  SAPE      H11X           14.6988033560      -26.5067158233       -6.5565106420  MEMB      157             0.0000000000
     18347       157  SAPE      H11Y           14.8648353331      -28.1423692156       -6.1644257871  MEMB      157             0.0000000000
     18348       157  SAPE      C312           12.7503697832      -27.5481731088       -6.3911617102  MEMB      157             0.0000000000
     18349       157  SAPE      H12X           12.3167585011      -28.5703387863       -6.4296269071  MEMB      157             0.0000000000
     18350       157  SAPE      H12Y           12.1990801613      -26.8816263639       -7.0883818808  MEMB      157             0.0000000000
     18351       157  SAPE      C313           12.5971766648      -27.1046608528       -4.9536029112  MEMB      157             0.0000000000
     18352       157  SAPE      H13X           12.9918059009      -26.0964774421       -4.7042945184  MEMB      157             0.0000000000
     18353       157  SAPE      H13Y           13.1802471381      -27.6955219854       -4.2152037267  MEMB      157             0.0000000000
     18354       157  SAPE      C314           11.1103491279      -27.1745497930       -4.6506591617  MEMB      157             0.0000000000
     18355       157  SAPE      H14X           10.6718995126      -28.1864957614       -4.7850021025  MEMB      157             0.0000000000
     18356       157  SAPE      H14Y           10.5104029552      -26.5968945658       -5.3859821947  MEMB      157             0.0000000000
     18357       157  SAPE      C315           10.8013948505      -26.7293992370       -3.2034968168  MEMB      157             0.0000000000
     18358       157  SAPE      H15X            9.6995258988      -26.6245448693       -3.1075209403  MEMB      157             0.0000000000
     18359       157  SAPE      H15Y           11.2664510932      -25.7252561839       -3.1048014877  MEMB      157             0.0000000000
     18360       157  SAPE      C316           11.3053301149      -27.6964106764       -2.1451932772  MEMB      157             0.0000000000
     18361       157  SAPE      H16X           12.3543447116      -28.0189818837       -2.3179266060  MEMB      157             0.0000000000
     18362       157  SAPE      H16Y           10.7843771755      -28.6761416806       -2.2004665745  MEMB      157             0.0000000000
     18363       157  SAPE      C317           11.1660044341      -27.2407543299       -0.7198423082  MEMB      157             0.0000000000
     18364       157  SAPE      H17X           11.7624034155      -26.3195470380       -0.5466149952  MEMB      157             0.0000000000
     18365       157  SAPE      H17Y           11.6177910653      -28.0772612904       -0.1449799278  MEMB      157             0.0000000000
     18366       157  SAPE      C318            9.6642251576      -27.0625876059       -0.2020226632  MEMB      157             0.0000000000
     18367       157  SAPE      H18X            9.1823452383      -28.0602739933       -0.2840891839  MEMB      157             0.0000000000
     18368       157  SAPE      H18Y            9.0848687898      -26.3248070492       -0.7972923226  MEMB      157             0.0000000000
     18369       157  SAPE      H18Z            9.7313343410      -26.7163318495        0.8515065576  MEMB      157             0.0000000000
     18370       158  OSM       N              23.9659562330      -23.6042872381      -19.6331363483  MEMB      158             0.0000000000
     18371       158  OSM       C15            24.0485617155      -25.0554795812      -20.1645795139  MEMB      158             0.0000000000
     18372       158  OSM       H15A           24.9598154020      -25.5177445964      -19.8148258993  MEMB      158             0.0000000000
     18373       158  OSM       H15B           23.9095180830      -24.9676269684      -21.2319823639  MEMB      158             0.0000000000
     18374       158  OSM       H15C           23.1463296882      -25.5244333335      -19.8006286768  MEMB      158             0.0000000000
     18375       158  OSM       C14            22.6988161177      -22.9797571918      -20.2597102463  MEMB      158             0.0000000000
     18376       158  OSM       H14A           22.6927866377      -23.0200908884      -21.3389399963  MEMB      158             0.0000000000
     18377       158  OSM       H14B           22.5406070938      -21.9738878068      -19.8997151086  MEMB      158             0.0000000000
     18378       158  OSM       H14C           21.9490529193      -23.6518518147      -19.8691411065  MEMB      158             0.0000000000
     18379       158  OSM       C13            23.6467453730      -23.6356345343      -18.1409791007  MEMB      158             0.0000000000
     18380       158  OSM       H13A           22.7372325288      -24.2007134233      -18.0000097003  MEMB      158             0.0000000000
     18381       158  OSM       H13B           23.6796072764      -22.5908299392      -17.8694951710  MEMB      158             0.0000000000
     18382       158  OSM       H13C           24.4240088141      -24.0665949565      -17.5273549294  MEMB      158             0.0000000000
     18383       158  OSM       C12            25.2269031575      -22.8756939550      -19.8699208690  MEMB      158             0.0000000000
     18384       158  OSM       H12A           25.9526341372      -23.3759344201      -19.2458423191  MEMB      158             0.0000000000
     18385       158  OSM       H12B           25.0355439916      -21.9007602847      -19.4464991363  MEMB      158             0.0000000000
     18386       158  OSM       C11            25.8411960486      -22.7785846470      -21.1864469707  MEMB      158             0.0000000000
     18387       158  OSM       H11A           26.0839683178      -23.7970020914      -21.5582111651  MEMB      158             0.0000000000
     18388       158  OSM       H11B           26.7880341877      -22.2661925009      -20.9120879310  MEMB      158             0.0000000000
     18389       158  OSM       P              25.4387907773      -20.5640739678      -22.4347652346  MEMB      158             0.0000000000
     18390       158  OSM       O13            26.9143239197      -20.5135871797      -22.3549622061  MEMB      158             0.0000000000
     18391       158  OSM       O14            24.8479639516      -20.0160528494      -23.6486098538  MEMB      158             0.0000000000
     18392       158  OSM       O11            24.8862655826      -19.7548881675      -21.2216515288  MEMB      158             0.0000000000
     18393       158  OSM       O12            25.0173080290      -22.0731672270      -22.0852381572  MEMB      158             0.0000000000
     18394       158  OSM       C1S            25.3093742981      -18.5267144454      -20.6900375605  MEMB      158             0.0000000000
     18395       158  OSM       H1S            24.5518856446      -17.7778797017      -21.0059145000  MEMB      158             0.0000000000
     18396       158  OSM       H1T            26.2917373428      -18.2361139465      -21.1199622119  MEMB      158             0.0000000000
     18397       158  OSM       NF             25.8409050635      -19.6691143923      -18.5274901923  MEMB      158             0.0000000000
     18398       158  OSM       HNF            25.2646473195      -20.2371466481      -17.9450167304  MEMB      158             0.0000000000
     18399       158  OSM       C2S            25.0932780607      -18.5610342034      -19.1149242315  MEMB      158             0.0000000000
     18400       158  OSM       H2S            25.5256984117      -17.6098821542      -18.7372424956  MEMB      158             0.0000000000
     18401       158  OSM       C3S            23.6948973014      -18.5885704907      -18.6113261905  MEMB      158             0.0000000000
     18402       158  OSM       H3S            23.1984001877      -19.5367451610      -18.9092798951  MEMB      158             0.0000000000
     18403       158  OSM       O3             23.0049589485      -17.4247435164      -19.0853066581  MEMB      158             0.0000000000
     18404       158  OSM       HO3            23.6421180380      -17.1194050091      -19.7352272653  MEMB      158             0.0000000000
     18405       158  OSM       C4S            23.6841995111      -18.5041267749      -17.1301960548  MEMB      158             0.0000000000
     18406       158  OSM       H4S            24.5294224475      -17.8879744130      -16.7896752339  MEMB      158             0.0000000000
     18407       158  OSM       C5S            22.9911736916      -19.2500280798      -16.2611954222  MEMB      158             0.0000000000
     18408       158  OSM       H5S            22.2970439163      -20.0451225508      -16.5710483549  MEMB      158             0.0000000000
     18409       158  OSM       C6S            23.0352387939      -19.1441721741      -14.6961302705  MEMB      158             0.0000000000
     18410       158  OSM       H6S            23.2452876844      -20.1332756668      -14.2358311700  MEMB      158             0.0000000000
     18411       158  OSM       H6T            22.0747052757      -18.7913497552      -14.2634499087  MEMB      158             0.0000000000
     18412       158  OSM       C7S            24.1035424683      -18.1809180161      -14.0274545901  MEMB      158             0.0000000000
     18413       158  OSM       H7S            23.9369744692      -17.1652768437      -14.4458432142  MEMB      158             0.0000000000
     18414       158  OSM       H7T            25.1281105600      -18.5034753974      -14.3112466475  MEMB      158             0.0000000000
     18415       158  OSM       C8S            24.1351760540      -18.2840179260      -12.5236531392  MEMB      158             0.0000000000
     18416       158  OSM       H8S            24.7636950748      -17.4296959181      -12.1928677530  MEMB      158             0.0000000000
     18417       158  OSM       H8T            24.5770115357      -19.2582976182      -12.2238512004  MEMB      158             0.0000000000
     18418       158  OSM       C9S            22.7618555438      -18.3077869268      -11.8369787450  MEMB      158             0.0000000000
     18419       158  OSM       H9S            22.3597895511      -19.3130212272      -12.0863142656  MEMB      158             0.0000000000
     18420       158  OSM       H9T            22.0467827111      -17.5424784719      -12.2075122482  MEMB      158             0.0000000000
     18421       158  OSM       C10S           22.8287028611      -18.3358861178      -10.2813143636  MEMB      158             0.0000000000
     18422       158  OSM       H10S           21.8361026630      -18.1331100813       -9.8253015310  MEMB      158             0.0000000000
     18423       158  OSM       H10T           23.4830597975      -17.4651052944      -10.0625012162  MEMB      158             0.0000000000
     18424       158  OSM       C11S           23.3201848850      -19.6916522630       -9.7842584734  MEMB      158             0.0000000000
     18425       158  OSM       H11S           24.3252568979      -19.8877234698      -10.2151971185  MEMB      158             0.0000000000
     18426       158  OSM       H11T           22.6555544213      -20.4491160398      -10.2520585022  MEMB      158             0.0000000000
     18427       158  OSM       C12S           23.5803046417      -19.7631422671       -8.2541804319  MEMB      158             0.0000000000
     18428       158  OSM       H12S           24.1215211114      -18.8100043194       -8.0727038312  MEMB      158             0.0000000000
     18429       158  OSM       H12T           24.1635054850      -20.6389595576       -7.8976109301  MEMB      158             0.0000000000
     18430       158  OSM       C13S           22.2990968132      -19.5558817643       -7.4713167608  MEMB      158             0.0000000000
     18431       158  OSM       H13S           21.5560711510      -20.2256095257       -7.9547414335  MEMB      158             0.0000000000
     18432       158  OSM       H13T           22.0022109650      -18.5040510899       -7.6708973686  MEMB      158             0.0000000000
     18433       158  OSM       C14S           22.3514358686      -19.7806841423       -5.9211717474  MEMB      158             0.0000000000
     18434       158  OSM       H14S           23.1198531199      -19.1925372839       -5.3753334219  MEMB      158             0.0000000000
     18435       158  OSM       H14T           22.5405529997      -20.8470758508       -5.6734536843  MEMB      158             0.0000000000
     18436       158  OSM       C15S           20.9920052392      -19.4064922784       -5.0673347185  MEMB      158             0.0000000000
     18437       158  OSM       H15S           20.1461059965      -20.0378706453       -5.4139422226  MEMB      158             0.0000000000
     18438       158  OSM       H15T           20.6979527588      -18.3737686387       -5.3525288446  MEMB      158             0.0000000000
     18439       158  OSM       C16S           21.1967967976      -19.5491113736       -3.5366620072  MEMB      158             0.0000000000
     18440       158  OSM       H16S           21.9030477327      -20.3596758344       -3.2564539015  MEMB      158             0.0000000000
     18441       158  OSM       H16T           20.2015863720      -19.9472662700       -3.2445144154  MEMB      158             0.0000000000
     18442       158  OSM       C17S           21.4752430196      -18.1657443921       -2.9641618897  MEMB      158             0.0000000000
     18443       158  OSM       H17S           20.7081104680      -17.4319603898       -3.2918658104  MEMB      158             0.0000000000
     18444       158  OSM       H17T           22.5166544582      -17.8898344660       -3.2355606243  MEMB      158             0.0000000000
     18445       158  OSM       C18S           21.4272136136      -18.0882773998       -1.4401106665  MEMB      158             0.0000000000
     18446       158  OSM       H18S           20.4203194424      -18.5010096031       -1.2161973551  MEMB      158             0.0000000000
     18447       158  OSM       H18T           21.4758035852      -17.0406637889       -1.0734152712  MEMB      158             0.0000000000
     18448       158  OSM       H18U           22.2734869238      -18.6951080631       -1.0529425018  MEMB      158             0.0000000000
     18449       158  OSM       C1F            27.1908018761      -19.8105382215      -18.6616027913  MEMB      158             0.0000000000
     18450       158  OSM       OF             27.8526431672      -19.2188040671      -19.5030489304  MEMB      158             0.0000000000
     18451       158  OSM       C2F            27.8500113918      -20.6881405075      -17.5821823693  MEMB      158             0.0000000000
     18452       158  OSM       H2F            26.9686321702      -21.1274629803      -17.0678989771  MEMB      158             0.0000000000
     18453       158  OSM       H2G            28.3095303228      -20.1197548608      -16.7454621704  MEMB      158             0.0000000000
     18454       158  OSM       C3F            28.7591256642      -21.8081786421      -18.1324232580  MEMB      158             0.0000000000
     18455       158  OSM       H3F            29.5935051256      -21.2145854566      -18.5634442493  MEMB      158             0.0000000000
     18456       158  OSM       H3G            28.2539781735      -22.3480261656      -18.9617070557  MEMB      158             0.0000000000
     18457       158  OSM       C4F            29.4554176071      -22.7273446393      -17.1339112731  MEMB      158             0.0000000000
     18458       158  OSM       H4F            29.7456458275      -22.2140350441      -16.1923159037  MEMB      158             0.0000000000
     18459       158  OSM       H4G            30.2991336171      -23.1173843872      -17.7424614095  MEMB      158             0.0000000000
     18460       158  OSM       C5F            28.6523544025      -24.0243772971      -16.8051301186  MEMB      158             0.0000000000
     18461       158  OSM       H5F            29.4676886112      -24.6468964256      -16.3784903931  MEMB      158             0.0000000000
     18462       158  OSM       H5G            28.3119224315      -24.5554856384      -17.7196523031  MEMB      158             0.0000000000
     18463       158  OSM       C6F            27.5207147987      -23.8734438037      -15.7651764636  MEMB      158             0.0000000000
     18464       158  OSM       H6F            26.6578792178      -23.6697198038      -16.4347529295  MEMB      158             0.0000000000
     18465       158  OSM       H6G            27.7326664407      -23.0050842740      -15.1053663474  MEMB      158             0.0000000000
     18466       158  OSM       C7F            27.1124579177      -25.1307103496      -14.9489401571  MEMB      158             0.0000000000
     18467       158  OSM       H7F            27.9873467473      -25.4997927786      -14.3721658002  MEMB      158             0.0000000000
     18468       158  OSM       H7G            26.8865010716      -25.8757970917      -15.7414740862  MEMB      158             0.0000000000
     18469       158  OSM       C8F            25.9721474261      -25.0187459503      -13.9207350443  MEMB      158             0.0000000000
     18470       158  OSM       H8F            25.0779663007      -24.7091703287      -14.5029069502  MEMB      158             0.0000000000
     18471       158  OSM       H8G            26.2210386265      -24.1470993978      -13.2783906797  MEMB      158             0.0000000000
     18472       158  OSM       C9F            25.6973693992      -26.2341134837      -13.0449689759  MEMB      158             0.0000000000
     18473       158  OSM       H9F            25.0714695523      -27.0251302784      -13.4837640381  MEMB      158             0.0000000000
     18474       158  OSM       C10F           26.0620247725      -26.4833551555      -11.7880534334  MEMB      158             0.0000000000
     18475       158  OSM       H10F           25.8705135419      -27.5000311746      -11.4142976598  MEMB      158             0.0000000000
     18476       158  OSM       C11F           26.8702167631      -25.6040807801      -10.8953641155  MEMB      158             0.0000000000
     18477       158  OSM       H11F           26.7997058630      -24.5339015091      -11.1853049366  MEMB      158             0.0000000000
     18478       158  OSM       H11G           27.9431960647      -25.8844932526      -10.9617380656  MEMB      158             0.0000000000
     18479       158  OSM       C12F           26.5490308584      -25.6758356727       -9.3131152320  MEMB      158             0.0000000000
     18480       158  OSM       H12F           26.6322132306      -26.7388764256       -9.0011115105  MEMB      158             0.0000000000
     18481       158  OSM       H12G           25.5317430416      -25.3089458465       -9.0584818933  MEMB      158             0.0000000000
     18482       158  OSM       C13F           27.2009881005      -24.6753293004       -8.3457117677  MEMB      158             0.0000000000
     18483       158  OSM       H13F           27.1373906271      -23.6157501368       -8.6736876712  MEMB      158             0.0000000000
     18484       158  OSM       H13G           28.2812638282      -24.9310698490       -8.3018653299  MEMB      158             0.0000000000
     18485       158  OSM       C14F           26.6994884016      -24.7428750308       -6.9314784762  MEMB      158             0.0000000000
     18486       158  OSM       H14F           26.9590946534      -25.7644627196       -6.5803603107  MEMB      158             0.0000000000
     18487       158  OSM       H14G           25.6183071703      -24.5247713436       -6.7980671971  MEMB      158             0.0000000000
     18488       158  OSM       C15F           27.3087515782      -23.8072173950       -5.9442780797  MEMB      158             0.0000000000
     18489       158  OSM       H15F           27.1382440777      -22.7374431231       -6.1909174870  MEMB      158             0.0000000000
     18490       158  OSM       H15G           28.3907178234      -24.0009642875       -6.1059337888  MEMB      158             0.0000000000
     18491       158  OSM       C16F           27.0917995952      -24.1454407045       -4.4756767439  MEMB      158             0.0000000000
     18492       158  OSM       H16F           27.3820121733      -25.2154329128       -4.4034624087  MEMB      158             0.0000000000
     18493       158  OSM       H16G           26.0513949272      -24.0299925866       -4.1034517105  MEMB      158             0.0000000000
     18494       158  OSM       C17F           27.9413783258      -23.1871537287       -3.6696308429  MEMB      158             0.0000000000
     18495       158  OSM       H17F           27.7410972199      -22.1211698386       -3.9102278713  MEMB      158             0.0000000000
     18496       158  OSM       H17G           29.0247463268      -23.3646896916       -3.8402645052  MEMB      158             0.0000000000
     18497       158  OSM       C18F           27.7735530275      -23.3075518673       -2.2024143222  MEMB      158             0.0000000000
     18498       158  OSM       H18F           26.8063019090      -22.8734389009       -1.8703104969  MEMB      158             0.0000000000
     18499       158  OSM       H18G           28.5604503253      -22.7814090976       -1.6207889741  MEMB      158             0.0000000000
     18500       158  OSM       H18H           27.8763260305      -24.3744377739       -1.9099875455  MEMB      158             0.0000000000
     18501       159  OSM       N             -34.5132791872        0.6744195025      -22.7045268096  MEMB      159             0.0000000000
     18502       159  OSM       C15           -35.8374451364        1.3732795670      -22.5637617744  MEMB      159             0.0000000000
     18503       159  OSM       H15A          -35.9666435422        2.3046038570      -23.0951213139  MEMB      159             0.0000000000
     18504       159  OSM       H15B          -35.7781709688        1.6370347167      -21.5181424897  MEMB      159             0.0000000000
     18505       159  OSM       H15C          -36.6795025343        0.7397932916      -22.8004782823  MEMB      159             0.0000000000
     18506       159  OSM       C14           -34.5531623184       -0.6338944574      -21.8709247226  MEMB      159             0.0000000000
     18507       159  OSM       H14A          -34.9834535421       -1.3748893578      -22.5283256789  MEMB      159             0.0000000000
     18508       159  OSM       H14B          -35.1243419298       -0.4711709950      -20.9688853816  MEMB      159             0.0000000000
     18509       159  OSM       H14C          -33.5354892488       -0.9654344404      -21.7266238119  MEMB      159             0.0000000000
     18510       159  OSM       C13           -34.3398474883        0.3967371526      -24.1112281283  MEMB      159             0.0000000000
     18511       159  OSM       H13A          -35.3063196149        0.2255089307      -24.5617973489  MEMB      159             0.0000000000
     18512       159  OSM       H13B          -33.5431643167       -0.3103806328      -24.2892179961  MEMB      159             0.0000000000
     18513       159  OSM       H13C          -33.9204172102        1.2382454557      -24.6425867091  MEMB      159             0.0000000000
     18514       159  OSM       C12           -33.3571601497        1.5443187449      -22.2348073328  MEMB      159             0.0000000000
     18515       159  OSM       H12A          -33.1841037451        2.2058674926      -23.0707526260  MEMB      159             0.0000000000
     18516       159  OSM       H12B          -32.5337113005        0.8562905755      -22.1125404802  MEMB      159             0.0000000000
     18517       159  OSM       C11           -33.5440315102        2.3202047427      -20.8992039029  MEMB      159             0.0000000000
     18518       159  OSM       H11A          -34.5240549471        2.8434033796      -20.9109645139  MEMB      159             0.0000000000
     18519       159  OSM       H11B          -32.7886807146        3.1341213643      -20.9353395733  MEMB      159             0.0000000000
     18520       159  OSM       P             -32.0838609290        1.0011038362      -19.3718517693  MEMB      159             0.0000000000
     18521       159  OSM       O13           -31.9204195403       -0.3687384831      -19.8269329720  MEMB      159             0.0000000000
     18522       159  OSM       O14           -31.0696744664        1.9944273675      -19.8221650565  MEMB      159             0.0000000000
     18523       159  OSM       O11           -32.2117690572        1.2277218978      -17.7641687784  MEMB      159             0.0000000000
     18524       159  OSM       O12           -33.4861400206        1.4172198738      -19.8304287650  MEMB      159             0.0000000000
     18525       159  OSM       C1S           -33.1656279300        0.6226882260      -16.8871642668  MEMB      159             0.0000000000
     18526       159  OSM       H1S           -33.1922388594       -0.4872790424      -16.8473449611  MEMB      159             0.0000000000
     18527       159  OSM       H1T           -34.2105040547        0.8965262258      -17.1471020876  MEMB      159             0.0000000000
     18528       159  OSM       NF            -32.0189980997        0.3572129165      -14.8159892630  MEMB      159             0.0000000000
     18529       159  OSM       HNF           -32.5143389684        0.0282129973      -14.0157356269  MEMB      159             0.0000000000
     18530       159  OSM       C2S           -32.8018989416        1.2538407919      -15.5176296674  MEMB      159             0.0000000000
     18531       159  OSM       H2S           -32.1977966954        2.1650068227      -15.7155133213  MEMB      159             0.0000000000
     18532       159  OSM       C3S           -34.0032797700        1.4716110165      -14.6902998662  MEMB      159             0.0000000000
     18533       159  OSM       H3S           -34.4768817428        0.4813130857      -14.5190334949  MEMB      159             0.0000000000
     18534       159  OSM       O3            -34.9335886089        2.3380830079      -15.3082072731  MEMB      159             0.0000000000
     18535       159  OSM       HO3           -34.3821847443        2.6488385535      -16.0299998466  MEMB      159             0.0000000000
     18536       159  OSM       C4S           -33.5813440784        2.0881536866      -13.3204960474  MEMB      159             0.0000000000
     18537       159  OSM       H4S           -33.9266383957        1.5550037177      -12.4224301461  MEMB      159             0.0000000000
     18538       159  OSM       C5S           -32.7396943230        3.0859119255      -13.1063978892  MEMB      159             0.0000000000
     18539       159  OSM       H5S           -32.1498544044        3.4857224399      -13.9443956198  MEMB      159             0.0000000000
     18540       159  OSM       C6S           -32.3492068127        3.6007023731      -11.7702924863  MEMB      159             0.0000000000
     18541       159  OSM       H6S           -32.0778882712        4.6776414307      -11.8004530582  MEMB      159             0.0000000000
     18542       159  OSM       H6T           -31.5218835164        2.9667327559      -11.3856625007  MEMB      159             0.0000000000
     18543       159  OSM       C7S           -33.4397068301        3.4666178308      -10.6951877754  MEMB      159             0.0000000000
     18544       159  OSM       H7S           -33.8708880440        2.4500299742      -10.5729055882  MEMB      159             0.0000000000
     18545       159  OSM       H7T           -34.2010287057        4.1809907442      -11.0751632787  MEMB      159             0.0000000000
     18546       159  OSM       C8S           -32.8577480058        3.7214126171       -9.2827023548  MEMB      159             0.0000000000
     18547       159  OSM       H8S           -32.6846283751        4.7973581640       -9.0666191333  MEMB      159             0.0000000000
     18548       159  OSM       H8T           -31.8271382748        3.3071579156       -9.2590862249  MEMB      159             0.0000000000
     18549       159  OSM       C9S           -33.7879554359        3.2893883025       -8.2040159035  MEMB      159             0.0000000000
     18550       159  OSM       H9S           -33.9751848305        2.1943535984       -8.2168656751  MEMB      159             0.0000000000
     18551       159  OSM       H9T           -34.7786994972        3.7630565216       -8.0355360877  MEMB      159             0.0000000000
     18552       159  OSM       C10S          -33.0344091545        3.4262726066       -6.8395886122  MEMB      159             0.0000000000
     18553       159  OSM       H10S          -32.8085258883        4.5139756864       -6.8254641782  MEMB      159             0.0000000000
     18554       159  OSM       H10T          -32.0167292324        2.9811272943       -6.8618196729  MEMB      159             0.0000000000
     18555       159  OSM       C11S          -33.6971511059        3.1825307435       -5.4540205708  MEMB      159             0.0000000000
     18556       159  OSM       H11S          -34.6428748115        3.7655638046       -5.4537051584  MEMB      159             0.0000000000
     18557       159  OSM       H11T          -32.9556739074        3.4084800979       -4.6581065310  MEMB      159             0.0000000000
     18558       159  OSM       C12S          -34.0009704820        1.6774829171       -5.2327920064  MEMB      159             0.0000000000
     18559       159  OSM       H12S          -33.0145332318        1.1666421458       -5.2153484852  MEMB      159             0.0000000000
     18560       159  OSM       H12T          -34.6524468066        1.2312118687       -6.0142916671  MEMB      159             0.0000000000
     18561       159  OSM       C13S          -34.7623054386        1.4281234200       -3.8603342768  MEMB      159             0.0000000000
     18562       159  OSM       H13S          -34.9809602486        0.3909479841       -3.5275019310  MEMB      159             0.0000000000
     18563       159  OSM       H13T          -35.6963142328        2.0167705979       -3.9846043750  MEMB      159             0.0000000000
     18564       159  OSM       C14S          -33.8631508149        1.8380292947       -2.6212963479  MEMB      159             0.0000000000
     18565       159  OSM       H14S          -33.2975846598        2.7798544112       -2.7868902873  MEMB      159             0.0000000000
     18566       159  OSM       H14T          -33.2401019411        0.9329496867       -2.4570947999  MEMB      159             0.0000000000
     18567       159  OSM       C15S          -34.7352871481        1.9787620664       -1.3129132341  MEMB      159             0.0000000000
     18568       159  OSM       H15S          -35.3789759492        1.0893410755       -1.1428660849  MEMB      159             0.0000000000
     18569       159  OSM       H15T          -35.3657931230        2.8825848507       -1.4539363979  MEMB      159             0.0000000000
     18570       159  OSM       C16S          -33.8996236466        2.2555356725       -0.0774185264  MEMB      159             0.0000000000
     18571       159  OSM       H16S          -33.1787053117        2.9978979709       -0.4817649240  MEMB      159             0.0000000000
     18572       159  OSM       H16T          -33.3368357281        1.3696323598        0.2869505317  MEMB      159             0.0000000000
     18573       159  OSM       C17S          -34.8257110211        2.8869985692        0.9411715343  MEMB      159             0.0000000000
     18574       159  OSM       H17S          -35.6095073192        2.1167495667        1.1045744155  MEMB      159             0.0000000000
     18575       159  OSM       H17T          -35.4282132346        3.7176214474        0.5152872673  MEMB      159             0.0000000000
     18576       159  OSM       C18S          -34.0650565853        3.2032611721        2.2805958648  MEMB      159             0.0000000000
     18577       159  OSM       H18S          -33.1672872994        3.8237968143        2.0725885051  MEMB      159             0.0000000000
     18578       159  OSM       H18T          -33.8109762936        2.1974193249        2.6781458610  MEMB      159             0.0000000000
     18579       159  OSM       H18U          -34.6928480248        3.8010469600        2.9754707618  MEMB      159             0.0000000000
     18580       159  OSM       C1F           -30.7353305952        0.0125720613      -14.9144777779  MEMB      159             0.0000000000
     18581       159  OSM       OF            -29.9353887074        0.6590408311      -15.6088176367  MEMB      159             0.0000000000
     18582       159  OSM       C2F           -30.2890735852       -1.1450560078      -14.1779870083  MEMB      159             0.0000000000
     18583       159  OSM       H2F           -29.8446221344       -1.9834259322      -14.7558447094  MEMB      159             0.0000000000
     18584       159  OSM       H2G           -31.2430610784       -1.5619997474      -13.7901896661  MEMB      159             0.0000000000
     18585       159  OSM       C3F           -29.2410951902       -0.7434779918      -13.1411573959  MEMB      159             0.0000000000
     18586       159  OSM       H3F           -28.4013566904       -0.1794160707      -13.6004984041  MEMB      159             0.0000000000
     18587       159  OSM       H3G           -28.8239887673       -1.6976914977      -12.7540917953  MEMB      159             0.0000000000
     18588       159  OSM       C4F           -29.6140339577        0.0134630857      -11.8985335976  MEMB      159             0.0000000000
     18589       159  OSM       H4F           -29.9534006203        1.0656926493      -12.0079141784  MEMB      159             0.0000000000
     18590       159  OSM       H4G           -28.7643013577        0.1174720794      -11.1903973623  MEMB      159             0.0000000000
     18591       159  OSM       C5F           -30.7864526440       -0.7675490294      -11.1424347967  MEMB      159             0.0000000000
     18592       159  OSM       H5F           -30.3859646252       -1.8010753570      -11.0665821223  MEMB      159             0.0000000000
     18593       159  OSM       H5G           -31.6313390910       -0.6924548027      -11.8599647835  MEMB      159             0.0000000000
     18594       159  OSM       C6F           -31.1478147724       -0.3347919403       -9.7281049010  MEMB      159             0.0000000000
     18595       159  OSM       H6F           -31.3928787523        0.7431150396       -9.6168333183  MEMB      159             0.0000000000
     18596       159  OSM       H6G           -30.2393889725       -0.5618301265       -9.1301600382  MEMB      159             0.0000000000
     18597       159  OSM       C7F           -32.2287621957       -1.2987058460       -9.1047516139  MEMB      159             0.0000000000
     18598       159  OSM       H7F           -31.8002090823       -2.3209288050       -9.0290993637  MEMB      159             0.0000000000
     18599       159  OSM       H7G           -33.1673882823       -1.3872881211       -9.6925055322  MEMB      159             0.0000000000
     18600       159  OSM       C8F           -32.6708689508       -0.8523955029       -7.6663136232  MEMB      159             0.0000000000
     18601       159  OSM       H8F           -32.7924149899        0.2399417228       -7.8286307003  MEMB      159             0.0000000000
     18602       159  OSM       H8G           -31.8413147557       -1.0122865201       -6.9447904530  MEMB      159             0.0000000000
     18603       159  OSM       C9F           -33.9739141326       -1.4122049888       -7.2273980587  MEMB      159             0.0000000000
     18604       159  OSM       H9F           -34.8346316139       -1.1333781966       -7.8530356756  MEMB      159             0.0000000000
     18605       159  OSM       C10F          -34.1558619042       -2.3835702149       -6.3283867981  MEMB      159             0.0000000000
     18606       159  OSM       H10F          -35.1884611401       -2.7374367796       -6.1923079427  MEMB      159             0.0000000000
     18607       159  OSM       C11F          -33.0039496786       -3.0995419771       -5.6308628873  MEMB      159             0.0000000000
     18608       159  OSM       H11F          -32.0719418962       -2.5320283887       -5.8396950275  MEMB      159             0.0000000000
     18609       159  OSM       H11G          -32.9821005886       -4.1174517447       -6.0755012915  MEMB      159             0.0000000000
     18610       159  OSM       C12F          -33.1776832264       -3.1269423034       -4.0404053785  MEMB      159             0.0000000000
     18611       159  OSM       H12F          -32.6259345957       -4.0488334696       -3.7575440597  MEMB      159             0.0000000000
     18612       159  OSM       H12G          -34.2623207760       -3.2319164355       -3.8239278327  MEMB      159             0.0000000000
     18613       159  OSM       C13F          -32.6294043122       -1.8738687249       -3.2956298343  MEMB      159             0.0000000000
     18614       159  OSM       H13F          -33.0571324574       -0.9642506474       -3.7688790718  MEMB      159             0.0000000000
     18615       159  OSM       H13G          -31.5243167089       -1.7817037993       -3.3635107181  MEMB      159             0.0000000000
     18616       159  OSM       C14F          -33.0322316377       -1.9039895687       -1.8082056409  MEMB      159             0.0000000000
     18617       159  OSM       H14F          -33.1082177819       -2.9652281108       -1.4883294117  MEMB      159             0.0000000000
     18618       159  OSM       H14G          -34.0649748861       -1.5161622933       -1.6764777273  MEMB      159             0.0000000000
     18619       159  OSM       C15F          -32.1132677717       -1.1011878781       -0.7977789914  MEMB      159             0.0000000000
     18620       159  OSM       H15F          -32.1477310179       -0.0178065309       -1.0415367621  MEMB      159             0.0000000000
     18621       159  OSM       H15G          -31.0923678025       -1.4312429818       -1.0861332204  MEMB      159             0.0000000000
     18622       159  OSM       C16F          -32.4723286775       -1.3674327927        0.6551310713  MEMB      159             0.0000000000
     18623       159  OSM       H16F          -32.3351410970       -2.4691604234        0.6963206011  MEMB      159             0.0000000000
     18624       159  OSM       H16G          -33.5482095747       -1.1338388952        0.8042464290  MEMB      159             0.0000000000
     18625       159  OSM       C17F          -31.5925963074       -0.6577895803        1.6616266540  MEMB      159             0.0000000000
     18626       159  OSM       H17F          -31.8661081035        0.4087715562        1.5134393938  MEMB      159             0.0000000000
     18627       159  OSM       H17G          -30.5240861518       -0.7028387863        1.3606648318  MEMB      159             0.0000000000
     18628       159  OSM       C18F          -31.7622560501       -1.1248915386        3.0278936575  MEMB      159             0.0000000000
     18629       159  OSM       H18F          -32.7672166710       -1.3774944803        3.4286021138  MEMB      159             0.0000000000
     18630       159  OSM       H18G          -31.4589836249       -0.3747695345        3.7892496377  MEMB      159             0.0000000000
     18631       159  OSM       H18H          -31.0351103347       -1.9422499281        3.2215565008  MEMB      159             0.0000000000
     18632       160  CHL1      C3            -25.6751775690       21.5697442849      -17.2786350000  MEMB      160             0.0000000000
     18633       160  CHL1      H3            -25.7850966740       20.5540704841      -16.8419950000  MEMB      160             0.0000000000
     18634       160  CHL1      O3            -25.5409942310       21.4453391151      -18.7213650000  MEMB      160             0.0000000000
     18635       160  CHL1      H3'           -24.6187777145       21.2081885341      -18.8433150000  MEMB      160             0.0000000000
     18636       160  CHL1      C4            -27.0734678224       22.2804108057      -16.9922150000  MEMB      160             0.0000000000
     18637       160  CHL1      H4A           -26.9509496195       23.2980438742      -17.4208450000  MEMB      160             0.0000000000
     18638       160  CHL1      H4B           -27.8779263205       21.6800478338      -17.4683950000  MEMB      160             0.0000000000
     18639       160  CHL1      C5            -27.3029634213       22.2579350297      -15.5056050000  MEMB      160             0.0000000000
     18640       160  CHL1      C6            -28.1674183796       21.4969825042      -14.8847950000  MEMB      160             0.0000000000
     18641       160  CHL1      H6            -28.7958976541       20.8051793039      -15.4648150000  MEMB      160             0.0000000000
     18642       160  CHL1      C7            -28.4065356507       21.5311974984      -13.4021050000  MEMB      160             0.0000000000
     18643       160  CHL1      H7A           -29.4765130232       21.4436677358      -13.1161150000  MEMB      160             0.0000000000
     18644       160  CHL1      H7B           -27.9358509993       20.5974904352      -13.0266450000  MEMB      160             0.0000000000
     18645       160  CHL1      C8            -27.8116619174       22.6430088099      -12.6096950000  MEMB      160             0.0000000000
     18646       160  CHL1      H8            -28.5371248078       23.4659971563      -12.7849550000  MEMB      160             0.0000000000
     18647       160  CHL1      C14           -27.7900848573       22.3668352643      -11.1162350000  MEMB      160             0.0000000000
     18648       160  CHL1      H14           -27.0948143563       21.5063098678      -11.0142150000  MEMB      160             0.0000000000
     18649       160  CHL1      C15           -29.0588676626       21.9550977961      -10.3732650000  MEMB      160             0.0000000000
     18650       160  CHL1      H15A          -29.9405163592       22.6029790198      -10.5663350000  MEMB      160             0.0000000000
     18651       160  CHL1      H15B          -29.4168817382       20.9210281663      -10.5652550000  MEMB      160             0.0000000000
     18652       160  CHL1      C16           -28.6125092311       22.0806114192       -8.9197550000  MEMB      160             0.0000000000
     18653       160  CHL1      H16A          -29.3886337712       22.6342027236       -8.3492550000  MEMB      160             0.0000000000
     18654       160  CHL1      H16B          -28.3940257976       21.0722304635       -8.5077450000  MEMB      160             0.0000000000
     18655       160  CHL1      C17           -27.3227991401       22.8819607276       -8.8160250000  MEMB      160             0.0000000000
     18656       160  CHL1      H17           -26.5263294332       22.1221336137       -8.6655850000  MEMB      160             0.0000000000
     18657       160  CHL1      C13           -27.1086359385       23.4296325242      -10.2853150000  MEMB      160             0.0000000000
     18658       160  CHL1      C18           -27.9328249387       24.7785244813      -10.4451050000  MEMB      160             0.0000000000
     18659       160  CHL1      H18A          -28.0071815752       25.1080480908      -11.5035050000  MEMB      160             0.0000000000
     18660       160  CHL1      H18B          -28.9598407209       24.8425572238      -10.0262350000  MEMB      160             0.0000000000
     18661       160  CHL1      H18C          -27.2885500462       25.5379061260       -9.9526050000  MEMB      160             0.0000000000
     18662       160  CHL1      C12           -25.6955772361       23.6621598852      -10.7987050000  MEMB      160             0.0000000000
     18663       160  CHL1      H12A          -25.0848606463       24.4192508504      -10.2619050000  MEMB      160             0.0000000000
     18664       160  CHL1      H12B          -25.1870457266       22.6764871435      -10.7341550000  MEMB      160             0.0000000000
     18665       160  CHL1      C11           -25.7421248131       23.9275157099      -12.2983450000  MEMB      160             0.0000000000
     18666       160  CHL1      H11A          -26.1966820549       24.9244921208      -12.4820050000  MEMB      160             0.0000000000
     18667       160  CHL1      H11B          -24.6521911629       23.9048572105      -12.5124750000  MEMB      160             0.0000000000
     18668       160  CHL1      C9            -26.4967131789       22.8752592560      -13.1188950000  MEMB      160             0.0000000000
     18669       160  CHL1      H9            -26.0731214771       21.8817377447      -12.8585050000  MEMB      160             0.0000000000
     18670       160  CHL1      C10           -26.3594389476       23.0731114008      -14.7092350000  MEMB      160             0.0000000000
     18671       160  CHL1      C19           -26.7155381169       24.6427674528      -14.9217050000  MEMB      160             0.0000000000
     18672       160  CHL1      H19A          -25.8298057590       25.2459065000      -14.6283850000  MEMB      160             0.0000000000
     18673       160  CHL1      H19B          -26.8920225043       24.7209487519      -16.0158050000  MEMB      160             0.0000000000
     18674       160  CHL1      H19C          -27.6423537709       24.9860055220      -14.4142350000  MEMB      160             0.0000000000
     18675       160  CHL1      C1            -24.8949477237       22.6404568633      -15.0569150000  MEMB      160             0.0000000000
     18676       160  CHL1      H1A           -24.2063690522       23.4225200176      -14.6714850000  MEMB      160             0.0000000000
     18677       160  CHL1      H1B           -24.7783167651       21.6992161538      -14.4783150000  MEMB      160             0.0000000000
     18678       160  CHL1      C2            -24.5765815522       22.4382955134      -16.6109550000  MEMB      160             0.0000000000
     18679       160  CHL1      H2A           -23.5745334274       21.9584982196      -16.6124450000  MEMB      160             0.0000000000
     18680       160  CHL1      H2B           -24.4207403019       23.4078157383      -17.1306450000  MEMB      160             0.0000000000
     18681       160  CHL1      C20           -27.3650255030       23.9464107429       -7.5901350000  MEMB      160             0.0000000000
     18682       160  CHL1      H20           -28.1916485310       24.6626188273       -7.7852150000  MEMB      160             0.0000000000
     18683       160  CHL1      C21           -26.1280593415       24.7872061867       -7.4856950000  MEMB      160             0.0000000000
     18684       160  CHL1      H21A          -25.7589090142       25.3770270056       -8.3518150000  MEMB      160             0.0000000000
     18685       160  CHL1      H21B          -25.3284873886       24.1007122377       -7.1339150000  MEMB      160             0.0000000000
     18686       160  CHL1      H21C          -26.3129007310       25.6086986340       -6.7609250000  MEMB      160             0.0000000000
     18687       160  CHL1      C22           -27.6739636344       23.3206801000       -6.1807750000  MEMB      160             0.0000000000
     18688       160  CHL1      H22A          -28.4023778383       22.5019347586       -6.3635650000  MEMB      160             0.0000000000
     18689       160  CHL1      H22B          -26.6620008203       22.9356056769       -5.9318450000  MEMB      160             0.0000000000
     18690       160  CHL1      C23           -28.1970998593       24.2866125280       -5.0561350000  MEMB      160             0.0000000000
     18691       160  CHL1      H23A          -27.3229002185       24.7419732119       -4.5435550000  MEMB      160             0.0000000000
     18692       160  CHL1      H23B          -28.8467290461       25.0952715092       -5.4541050000  MEMB      160             0.0000000000
     18693       160  CHL1      C24           -29.1121052389       23.5243961179       -4.0369850000  MEMB      160             0.0000000000
     18694       160  CHL1      H24A          -30.0258294971       23.4211752378       -4.6605050000  MEMB      160             0.0000000000
     18695       160  CHL1      H24B          -28.6231155949       22.5864864665       -3.6970750000  MEMB      160             0.0000000000
     18696       160  CHL1      C25           -29.4194816253       24.3083576200       -2.7231250000  MEMB      160             0.0000000000
     18697       160  CHL1      H25           -30.0375203902       25.2251478097       -2.8320050000  MEMB      160             0.0000000000
     18698       160  CHL1      C26           -30.3036860374       23.4179235025       -1.7602650000  MEMB      160             0.0000000000
     18699       160  CHL1      H26A          -30.4612484417       23.9173179418       -0.7804150000  MEMB      160             0.0000000000
     18700       160  CHL1      H26B          -31.2901517190       23.3050538747       -2.2587450000  MEMB      160             0.0000000000
     18701       160  CHL1      H26C          -29.9228998572       22.3968374882       -1.5441750000  MEMB      160             0.0000000000
     18702       160  CHL1      C27           -28.1406289369       24.6395791653       -1.9562550000  MEMB      160             0.0000000000
     18703       160  CHL1      H27A          -27.5048095968       23.7688955863       -1.6879750000  MEMB      160             0.0000000000
     18704       160  CHL1      H27B          -27.4222055852       25.2473545186       -2.5468450000  MEMB      160             0.0000000000
     18705       160  CHL1      H27C          -28.3580379784       25.0441759626       -0.9446450000  MEMB      160             0.0000000000
     18706       161  SAPE      N             -32.1251845211       12.8211953786      -22.5282243045  MEMB      161             0.0000000000
     18707       161  SAPE      HN1           -32.8111155912       12.9939790459      -21.7658304570  MEMB      161             0.0000000000
     18708       161  SAPE      HN2           -31.9621098165       13.8175799446      -22.7776725608  MEMB      161             0.0000000000
     18709       161  SAPE      HN3           -32.5631989372       12.2451449494      -23.2751574912  MEMB      161             0.0000000000
     18710       161  SAPE      C12           -30.8294029777       12.2432468801      -21.9785564019  MEMB      161             0.0000000000
     18711       161  SAPE      H12A          -30.0089753568       12.4953268750      -22.6840175896  MEMB      161             0.0000000000
     18712       161  SAPE      H12B          -30.9177342801       11.1370858780      -22.0326507358  MEMB      161             0.0000000000
     18713       161  SAPE      C11           -30.5421577399       12.6104709964      -20.5549191718  MEMB      161             0.0000000000
     18714       161  SAPE      H11A          -29.5676019540       12.2322762341      -20.1787134758  MEMB      161             0.0000000000
     18715       161  SAPE      H11B          -31.2883995527       12.1690055534      -19.8602592853  MEMB      161             0.0000000000
     18716       161  SAPE      P             -30.2584792613       14.7327753309      -18.9524836382  MEMB      161             0.0000000000
     18717       161  SAPE      O13           -28.7840397750       14.6259029507      -18.8402870488  MEMB      161             0.0000000000
     18718       161  SAPE      O14           -30.9164253366       16.0504286637      -18.9331336160  MEMB      161             0.0000000000
     18719       161  SAPE      O12           -30.6688394745       14.0268982286      -20.3617870913  MEMB      161             0.0000000000
     18720       161  SAPE      O11           -30.8817884968       13.7783487707      -17.8506087450  MEMB      161             0.0000000000
     18721       161  SAPE      C1            -32.3149130752       13.6088475086      -17.6750371777  MEMB      161             0.0000000000
     18722       161  SAPE      HA            -32.9373877918       14.1890044253      -18.3893648522  MEMB      161             0.0000000000
     18723       161  SAPE      HB            -32.5577545816       12.5461920101      -17.8897752400  MEMB      161             0.0000000000
     18724       161  SAPE      C2            -32.7332448106       14.0273100580      -16.3226717141  MEMB      161             0.0000000000
     18725       161  SAPE      HS            -32.6452823439       15.1348197757      -16.3202549013  MEMB      161             0.0000000000
     18726       161  SAPE      O21           -31.9465995577       13.4688012926      -15.3603194457  MEMB      161             0.0000000000
     18727       161  SAPE      C21           -30.8668644054       14.1919426157      -14.9454779140  MEMB      161             0.0000000000
     18728       161  SAPE      O22           -30.5626914469       15.2888350582      -15.3302496065  MEMB      161             0.0000000000
     18729       161  SAPE      C22           -30.2843369839       13.5558770457      -13.6238238474  MEMB      161             0.0000000000
     18730       161  SAPE      H2R           -29.3430028232       14.0471600562      -13.2969419208  MEMB      161             0.0000000000
     18731       161  SAPE      H2S           -31.0933843505       13.7072687995      -12.8776043889  MEMB      161             0.0000000000
     18732       161  SAPE      C3            -34.1965677440       13.7070877234      -16.0431110493  MEMB      161             0.0000000000
     18733       161  SAPE      HX            -34.4010065353       12.6152375937      -16.0233848979  MEMB      161             0.0000000000
     18734       161  SAPE      HY            -34.9281357023       13.8953720510      -16.8577757294  MEMB      161             0.0000000000
     18735       161  SAPE      O31           -34.5972033980       14.3706169633      -14.8256766417  MEMB      161             0.0000000000
     18736       161  SAPE      C31           -34.5602127923       13.6308386889      -13.7300610014  MEMB      161             0.0000000000
     18737       161  SAPE      O32           -34.2269504325       12.4990859353      -13.6573297120  MEMB      161             0.0000000000
     18738       161  SAPE      C32           -34.8582486969       14.5521824877      -12.5138044488  MEMB      161             0.0000000000
     18739       161  SAPE      H2X           -35.8964747790       14.9297496338      -12.6314919666  MEMB      161             0.0000000000
     18740       161  SAPE      H2Y           -34.3620644482       15.5253388604      -12.7165081751  MEMB      161             0.0000000000
     18741       161  SAPE      C23           -29.9602035241       12.0937189067      -13.9342372199  MEMB      161             0.0000000000
     18742       161  SAPE      H3R           -29.3159284988       11.8146432611      -14.7952528234  MEMB      161             0.0000000000
     18743       161  SAPE      H3S           -30.9091143040       11.7066825444      -14.3632968118  MEMB      161             0.0000000000
     18744       161  SAPE      C24           -29.4553766079       11.3838773507      -12.6528844336  MEMB      161             0.0000000000
     18745       161  SAPE      H4R           -29.3905263881       10.2945386246      -12.8613466572  MEMB      161             0.0000000000
     18746       161  SAPE      H4S           -30.3270373033       11.5484096779      -11.9839617189  MEMB      161             0.0000000000
     18747       161  SAPE      C25           -28.0780430652       11.6896190708      -12.1834986859  MEMB      161             0.0000000000
     18748       161  SAPE      H5R           -27.2715089115       11.3297205166      -12.8392243878  MEMB      161             0.0000000000
     18749       161  SAPE      C26           -27.8064091856       12.1487040668      -10.9250864935  MEMB      161             0.0000000000
     18750       161  SAPE      H6R           -26.7309482859       12.2541161716      -10.7194837104  MEMB      161             0.0000000000
     18751       161  SAPE      C27           -28.7721532827       12.4117814138       -9.8276472179  MEMB      161             0.0000000000
     18752       161  SAPE      H7R           -29.6048337441       13.0404942784      -10.2093336478  MEMB      161             0.0000000000
     18753       161  SAPE      H7S           -28.2304950859       13.0371280002       -9.0861156133  MEMB      161             0.0000000000
     18754       161  SAPE      C28           -29.1734171824       11.1806353158       -9.0037752361  MEMB      161             0.0000000000
     18755       161  SAPE      H8R           -28.4486733133       10.3585628051       -8.9092077078  MEMB      161             0.0000000000
     18756       161  SAPE      C29           -30.3093860378       11.1451284704       -8.3100289848  MEMB      161             0.0000000000
     18757       161  SAPE      H9R           -30.4980321453       10.1498608189       -7.8812458546  MEMB      161             0.0000000000
     18758       161  SAPE      C210          -31.4092454218       12.1976301620       -8.1814361114  MEMB      161             0.0000000000
     18759       161  SAPE      H10R          -31.2525503416       12.8262823917       -9.0839673656  MEMB      161             0.0000000000
     18760       161  SAPE      H10S          -31.1497653759       12.8028386516       -7.2866093253  MEMB      161             0.0000000000
     18761       161  SAPE      C211          -32.8571114978       11.6773979193       -8.1493880113  MEMB      161             0.0000000000
     18762       161  SAPE      H11R          -33.3080941575       11.3953281249       -9.1122230432  MEMB      161             0.0000000000
     18763       161  SAPE      C212          -33.7374413589       11.7588558456       -7.1723501687  MEMB      161             0.0000000000
     18764       161  SAPE      H12R          -34.7829784761       11.4210734986       -7.2248388087  MEMB      161             0.0000000000
     18765       161  SAPE      C213          -33.4923806777       12.3723713801       -5.8174201857  MEMB      161             0.0000000000
     18766       161  SAPE      H13R          -32.4276751342       12.2508283938       -5.5242467934  MEMB      161             0.0000000000
     18767       161  SAPE      H13S          -34.0092994309       11.6996340140       -5.1001053317  MEMB      161             0.0000000000
     18768       161  SAPE      C214          -33.9435254481       13.8235901860       -5.6668080551  MEMB      161             0.0000000000
     18769       161  SAPE      H14R          -34.3061911913       14.2430406255       -6.6168265658  MEMB      161             0.0000000000
     18770       161  SAPE      C215          -33.9770706690       14.5397708115       -4.5329441558  MEMB      161             0.0000000000
     18771       161  SAPE      H15R          -34.4856231644       15.5151547122       -4.5320952858  MEMB      161             0.0000000000
     18772       161  SAPE      C216          -33.5559787130       14.0733487207       -3.1360090200  MEMB      161             0.0000000000
     18773       161  SAPE      H16R          -32.6721214719       14.5864806506       -2.7003337377  MEMB      161             0.0000000000
     18774       161  SAPE      H16S          -33.3890770947       12.9761023948       -3.0858552913  MEMB      161             0.0000000000
     18775       161  SAPE      C217          -34.6766702109       14.4068417964       -2.1327802854  MEMB      161             0.0000000000
     18776       161  SAPE      H17R          -35.7008983940       14.0496893669       -2.3730291693  MEMB      161             0.0000000000
     18777       161  SAPE      H17S          -34.8787374129       15.4985683711       -2.1730663182  MEMB      161             0.0000000000
     18778       161  SAPE      C218          -34.2822589773       13.9353000811       -0.7341006735  MEMB      161             0.0000000000
     18779       161  SAPE      H18R          -35.1373774835       14.2571141502       -0.1020176933  MEMB      161             0.0000000000
     18780       161  SAPE      H18S          -33.3443790641       14.5012967801       -0.5487636282  MEMB      161             0.0000000000
     18781       161  SAPE      C219          -34.2418064951       12.3780466565       -0.6060905686  MEMB      161             0.0000000000
     18782       161  SAPE      H19R          -33.4657543636       11.9947923245       -1.3026389816  MEMB      161             0.0000000000
     18783       161  SAPE      H19S          -35.2155474596       11.9772877881       -0.9604098180  MEMB      161             0.0000000000
     18784       161  SAPE      C220          -33.8435720052       11.8878637333        0.7655087942  MEMB      161             0.0000000000
     18785       161  SAPE      H20R          -33.4936738892       10.8336026660        0.7861515657  MEMB      161             0.0000000000
     18786       161  SAPE      H20S          -34.6419470197       12.1523946645        1.4914157605  MEMB      161             0.0000000000
     18787       161  SAPE      H20T          -33.0190817614       12.5651548765        1.0750464639  MEMB      161             0.0000000000
     18788       161  SAPE      C33           -34.3371962201       13.9032702041      -11.2683981339  MEMB      161             0.0000000000
     18789       161  SAPE      H3X           -33.2428863426       13.7182632540      -11.2176077262  MEMB      161             0.0000000000
     18790       161  SAPE      H3Y           -34.8003120504       12.8960315063      -11.1954961694  MEMB      161             0.0000000000
     18791       161  SAPE      C34           -34.7492418444       14.7252837483       -9.9538112068  MEMB      161             0.0000000000
     18792       161  SAPE      H4X           -34.4132561134       14.1086084524       -9.0929129021  MEMB      161             0.0000000000
     18793       161  SAPE      H4Y           -35.8543783357       14.8374459955       -9.9334638766  MEMB      161             0.0000000000
     18794       161  SAPE      C35           -34.2314770981       16.1610629216       -9.8966907315  MEMB      161             0.0000000000
     18795       161  SAPE      H5X           -35.1263303762       16.7986181960       -9.7321245363  MEMB      161             0.0000000000
     18796       161  SAPE      H5Y           -33.7745322449       16.4748466063      -10.8595314064  MEMB      161             0.0000000000
     18797       161  SAPE      C36           -32.9312223796       16.2663248057       -9.0427392275  MEMB      161             0.0000000000
     18798       161  SAPE      H6X           -32.2433362962       15.4565785741       -9.3674613467  MEMB      161             0.0000000000
     18799       161  SAPE      H6Y           -33.1041824991       16.1066112272       -7.9569683567  MEMB      161             0.0000000000
     18800       161  SAPE      C37           -32.3233234500       17.6456955460       -9.3651004609  MEMB      161             0.0000000000
     18801       161  SAPE      H7X           -33.1778955583       18.3548290202       -9.3991202776  MEMB      161             0.0000000000
     18802       161  SAPE      H7Y           -31.8042949133       17.4462732107      -10.3269534084  MEMB      161             0.0000000000
     18803       161  SAPE      C38           -31.3345355656       18.1401008563       -8.2582419291  MEMB      161             0.0000000000
     18804       161  SAPE      H8X           -31.8247908541       18.2831151480       -7.2715719560  MEMB      161             0.0000000000
     18805       161  SAPE      H8Y           -30.9628945843       19.1495927734       -8.5359665510  MEMB      161             0.0000000000
     18806       161  SAPE      C39           -30.1353100828       17.1195830795       -8.1182827507  MEMB      161             0.0000000000
     18807       161  SAPE      H9X           -29.7053539667       16.8723699907       -9.1124381792  MEMB      161             0.0000000000
     18808       161  SAPE      H9Y           -30.4953567002       16.1638134261       -7.6810286616  MEMB      161             0.0000000000
     18809       161  SAPE      C310          -28.9905660449       17.5187421827       -7.1432640481  MEMB      161             0.0000000000
     18810       161  SAPE      H10X          -28.3448417544       18.3144540770       -7.5724537257  MEMB      161             0.0000000000
     18811       161  SAPE      H10Y          -28.2999855792       16.6490224364       -7.1750004036  MEMB      161             0.0000000000
     18812       161  SAPE      C311          -29.3203501183       17.7882870616       -5.6824023950  MEMB      161             0.0000000000
     18813       161  SAPE      H11X          -30.0724192922       18.6042881886       -5.6289680728  MEMB      161             0.0000000000
     18814       161  SAPE      H11Y          -28.3601333943       18.0806707832       -5.2061496145  MEMB      161             0.0000000000
     18815       161  SAPE      C312          -29.9128372345       16.6200661895       -4.9094614883  MEMB      161             0.0000000000
     18816       161  SAPE      H12X          -30.6894935978       16.1148925805       -5.5225893470  MEMB      161             0.0000000000
     18817       161  SAPE      H12Y          -30.4013420799       17.0548754497       -4.0113391574  MEMB      161             0.0000000000
     18818       161  SAPE      C313          -28.9498413656       15.4876144559       -4.6134404424  MEMB      161             0.0000000000
     18819       161  SAPE      H13X          -28.0928248455       15.7615157697       -3.9616568949  MEMB      161             0.0000000000
     18820       161  SAPE      H13Y          -28.6151448244       15.2556909056       -5.6471281805  MEMB      161             0.0000000000
     18821       161  SAPE      C314          -29.6362386924       14.2240694795       -4.0937146344  MEMB      161             0.0000000000
     18822       161  SAPE      H14X          -30.4618176406       14.0223930211       -4.8093030622  MEMB      161             0.0000000000
     18823       161  SAPE      H14Y          -30.0387688441       14.3928907814       -3.0720548461  MEMB      161             0.0000000000
     18824       161  SAPE      C315          -28.7692312819       12.9740274671       -3.9258361106  MEMB      161             0.0000000000
     18825       161  SAPE      H15X          -27.9204238607       13.2063696449       -3.2477027357  MEMB      161             0.0000000000
     18826       161  SAPE      H15Y          -28.3860140662       12.7302992886       -4.9397697370  MEMB      161             0.0000000000
     18827       161  SAPE      C316          -29.4721999338       11.7029281679       -3.3730043785  MEMB      161             0.0000000000
     18828       161  SAPE      H16X          -28.8852936257       10.8324341537       -3.7364632938  MEMB      161             0.0000000000
     18829       161  SAPE      H16Y          -30.4057118343       11.4930946305       -3.9376692020  MEMB      161             0.0000000000
     18830       161  SAPE      C317          -29.6552995718       11.6075000428       -1.7816735163  MEMB      161             0.0000000000
     18831       161  SAPE      H17X          -30.0515957358       12.5715095930       -1.3970240460  MEMB      161             0.0000000000
     18832       161  SAPE      H17Y          -28.7217920859       11.3053089446       -1.2605542709  MEMB      161             0.0000000000
     18833       161  SAPE      C318          -30.7505982907       10.5762204841       -1.5259701083  MEMB      161             0.0000000000
     18834       161  SAPE      H18X          -31.6489217629       11.0785525946       -1.9442975605  MEMB      161             0.0000000000
     18835       161  SAPE      H18Y          -30.8533538293       10.3596752306       -0.4411345358  MEMB      161             0.0000000000
     18836       161  SAPE      H18Z          -30.6246865686        9.5793430989       -1.9999997330  MEMB      161             0.0000000000
     18837       162  CHL1      C3            -26.3438535758      -21.6672524035      -17.3089900000  MEMB      162             0.0000000000
     18838       162  CHL1      H3            -26.5035780402      -20.6233761857      -16.9638300000  MEMB      162             0.0000000000
     18839       162  CHL1      O3            -26.5819586242      -21.7973965965      -18.6910100000  MEMB      162             0.0000000000
     18840       162  CHL1      H3'           -25.9856787428      -21.1692172005      -19.1050600000  MEMB      162             0.0000000000
     18841       162  CHL1      C4            -24.8780451894      -21.9884474322      -17.0204300000  MEMB      162             0.0000000000
     18842       162  CHL1      H4A           -24.5800572252      -22.9813025415      -17.4201400000  MEMB      162             0.0000000000
     18843       162  CHL1      H4B           -24.3046444593      -21.1341457141      -17.4396000000  MEMB      162             0.0000000000
     18844       162  CHL1      C5            -24.6139126634      -21.9254833449      -15.5330300000  MEMB      162             0.0000000000
     18845       162  CHL1      C6            -23.7416593721      -21.1178091856      -14.9727400000  MEMB      162             0.0000000000
     18846       162  CHL1      H6            -23.1926150444      -20.3946394139      -15.5936900000  MEMB      162             0.0000000000
     18847       162  CHL1      C7            -23.3637019245      -21.0884020981      -13.5220600000  MEMB      162             0.0000000000
     18848       162  CHL1      H7A           -22.2571869825      -21.1154821627      -13.4260900000  MEMB      162             0.0000000000
     18849       162  CHL1      H7B           -23.7568845116      -20.0998759359      -13.2018300000  MEMB      162             0.0000000000
     18850       162  CHL1      C8            -23.9673276036      -22.1677067456      -12.6815500000  MEMB      162             0.0000000000
     18851       162  CHL1      H8            -23.2428607508      -23.0011459898      -12.8034000000  MEMB      162             0.0000000000
     18852       162  CHL1      C14           -23.8894611536      -21.8354075484      -11.2109600000  MEMB      162             0.0000000000
     18853       162  CHL1      H14           -24.5598906061      -20.9894304149      -10.9479500000  MEMB      162             0.0000000000
     18854       162  CHL1      C15           -22.5470016556      -21.4547253702      -10.5117800000  MEMB      162             0.0000000000
     18855       162  CHL1      H15A          -21.7419229349      -22.0728137164      -10.9635900000  MEMB      162             0.0000000000
     18856       162  CHL1      H15B          -22.4244017352      -20.3874543927      -10.7950200000  MEMB      162             0.0000000000
     18857       162  CHL1      C16           -22.8400396600      -21.6907455545       -9.0018400000  MEMB      162             0.0000000000
     18858       162  CHL1      H16A          -22.0008936185      -22.3205908838       -8.6365200000  MEMB      162             0.0000000000
     18859       162  CHL1      H16B          -22.8904411747      -20.7269707448       -8.4514600000  MEMB      162             0.0000000000
     18860       162  CHL1      C17           -24.1993726185      -22.4965943221       -8.9183200000  MEMB      162             0.0000000000
     18861       162  CHL1      H17           -25.0159530446      -21.7435633464       -8.8970900000  MEMB      162             0.0000000000
     18862       162  CHL1      C13           -24.4064561169      -23.0579065341      -10.3794900000  MEMB      162             0.0000000000
     18863       162  CHL1      C18           -23.5932608199      -24.3451726140      -10.5599200000  MEMB      162             0.0000000000
     18864       162  CHL1      H18A          -24.0784690309      -25.1043352613       -9.9098700000  MEMB      162             0.0000000000
     18865       162  CHL1      H18B          -23.5277892106      -24.8170664702      -11.5635900000  MEMB      162             0.0000000000
     18866       162  CHL1      H18C          -22.5616485045      -24.1987083795      -10.1743700000  MEMB      162             0.0000000000
     18867       162  CHL1      C12           -25.8601655686      -23.2209416581      -10.6562900000  MEMB      162             0.0000000000
     18868       162  CHL1      H12A          -26.3879050870      -24.0222577976      -10.0962100000  MEMB      162             0.0000000000
     18869       162  CHL1      H12B          -26.3162977348      -22.2091249724      -10.6062400000  MEMB      162             0.0000000000
     18870       162  CHL1      C11           -26.0613155461      -23.5492971039      -12.1287900000  MEMB      162             0.0000000000
     18871       162  CHL1      H11A          -25.5570708554      -24.5371235272      -12.1939100000  MEMB      162             0.0000000000
     18872       162  CHL1      H11B          -27.1416383368      -23.5922298968      -12.3844900000  MEMB      162             0.0000000000
     18873       162  CHL1      C9            -25.3525982773      -22.5361147339      -13.0874500000  MEMB      162             0.0000000000
     18874       162  CHL1      H9            -25.9516754749      -21.6030114256      -13.0186200000  MEMB      162             0.0000000000
     18875       162  CHL1      C10           -25.5071202095      -22.8679854880      -14.6446100000  MEMB      162             0.0000000000
     18876       162  CHL1      C19           -25.0163603951      -24.2990519481      -14.8416300000  MEMB      162             0.0000000000
     18877       162  CHL1      H19A          -25.4801152581      -25.1074077520      -14.2368000000  MEMB      162             0.0000000000
     18878       162  CHL1      H19B          -25.3870440709      -24.5590740889      -15.8561800000  MEMB      162             0.0000000000
     18879       162  CHL1      H19C          -23.9174292996      -24.4615614779      -14.8575900000  MEMB      162             0.0000000000
     18880       162  CHL1      C1            -27.0095219726      -22.6839457734      -15.0744100000  MEMB      162             0.0000000000
     18881       162  CHL1      H1A           -27.5758614033      -23.4665025506      -14.5256000000  MEMB      162             0.0000000000
     18882       162  CHL1      H1B           -27.2746380657      -21.7312382953      -14.5680600000  MEMB      162             0.0000000000
     18883       162  CHL1      C2            -27.2634310136      -22.6208980654      -16.5227900000  MEMB      162             0.0000000000
     18884       162  CHL1      H2A           -28.3284781707      -22.3241458567      -16.6320100000  MEMB      162             0.0000000000
     18885       162  CHL1      H2B           -27.2290199772      -23.6649307395      -16.9011300000  MEMB      162             0.0000000000
     18886       162  CHL1      C20           -24.2804406922      -23.4403713184       -7.6812100000  MEMB      162             0.0000000000
     18887       162  CHL1      H20           -23.5120113376      -24.2423352811       -7.7076100000  MEMB      162             0.0000000000
     18888       162  CHL1      C21           -25.5914129694      -24.2180528728       -7.5496700000  MEMB      162             0.0000000000
     18889       162  CHL1      H21A          -25.6565385827      -24.7428397867       -6.5726000000  MEMB      162             0.0000000000
     18890       162  CHL1      H21B          -25.5715847568      -25.0131959687       -8.3253500000  MEMB      162             0.0000000000
     18891       162  CHL1      H21C          -26.5142130499      -23.6263185440       -7.7302600000  MEMB      162             0.0000000000
     18892       162  CHL1      C22           -24.0785449397      -22.5476093398       -6.4249200000  MEMB      162             0.0000000000
     18893       162  CHL1      H22A          -23.1136354343      -22.0447155649       -6.6493700000  MEMB      162             0.0000000000
     18894       162  CHL1      H22B          -24.9162245857      -21.8178495462       -6.4332300000  MEMB      162             0.0000000000
     18895       162  CHL1      C23           -23.9371697494      -23.3668450629       -5.1064300000  MEMB      162             0.0000000000
     18896       162  CHL1      H23A          -24.9126647444      -23.8904655213       -5.0140400000  MEMB      162             0.0000000000
     18897       162  CHL1      H23B          -23.1214068115      -24.1207654278       -5.1279700000  MEMB      162             0.0000000000
     18898       162  CHL1      C24           -23.7378419428      -22.4738331763       -3.8841900000  MEMB      162             0.0000000000
     18899       162  CHL1      H24A          -22.8985718397      -21.7812207248       -4.1083200000  MEMB      162             0.0000000000
     18900       162  CHL1      H24B          -24.6258342486      -21.8129898913       -3.7889100000  MEMB      162             0.0000000000
     18901       162  CHL1      C25           -23.5810750148      -23.2086556398       -2.5854700000  MEMB      162             0.0000000000
     18902       162  CHL1      H25           -24.3200109536      -23.9904492977       -2.3078000000  MEMB      162             0.0000000000
     18903       162  CHL1      C26           -22.3101730126      -24.0275675984       -2.5529900000  MEMB      162             0.0000000000
     18904       162  CHL1      H26A          -21.5393025742      -23.2447276906       -2.7180300000  MEMB      162             0.0000000000
     18905       162  CHL1      H26B          -22.0954177987      -24.5736190800       -1.6095700000  MEMB      162             0.0000000000
     18906       162  CHL1      H26C          -22.2276944018      -24.8246528832       -3.3225200000  MEMB      162             0.0000000000
     18907       162  CHL1      C27           -23.5622462245      -22.3115258514       -1.4194100000  MEMB      162             0.0000000000
     18908       162  CHL1      H27A          -24.5172126889      -21.8325359408       -1.1145700000  MEMB      162             0.0000000000
     18909       162  CHL1      H27B          -23.1266186613      -22.8809930009       -0.5707400000  MEMB      162             0.0000000000
     18910       162  CHL1      H27C          -22.8977929665      -21.4600613253       -1.6798500000  MEMB      162             0.0000000000
     18911       163  POPC      N              23.2219292957       26.0428495904      -20.9623519429  MEMB      163             0.0000000000
     18912       163  POPC      C12            22.1731125511       26.0064386982      -19.8490826462  MEMB      163             0.0000000000
     18913       163  POPC      H12A           21.4035196780       25.2791950846      -20.0617880427  MEMB      163             0.0000000000
     18914       163  POPC      H12B           21.5736473389       26.9036374079      -19.8035230038  MEMB      163             0.0000000000
     18915       163  POPC      C13            23.8192839857       24.6878526111      -21.2453221421  MEMB      163             0.0000000000
     18916       163  POPC      H13A           23.0156613995       23.9929188836      -21.4393785763  MEMB      163             0.0000000000
     18917       163  POPC      H13B           24.5038407978       24.8035742009      -22.0726009642  MEMB      163             0.0000000000
     18918       163  POPC      H13C           24.4644765520       24.4804354119      -20.4044268389  MEMB      163             0.0000000000
     18919       163  POPC      C14            22.5235042345       26.3529065195      -22.2506149240  MEMB      163             0.0000000000
     18920       163  POPC      H14A           21.7529245317       25.6031689784      -22.3530863995  MEMB      163             0.0000000000
     18921       163  POPC      H14B           21.9543546341       27.2654151770      -22.1516356405  MEMB      163             0.0000000000
     18922       163  POPC      H14C           23.1717146927       26.4773095925      -23.1054525121  MEMB      163             0.0000000000
     18923       163  POPC      C15            24.2982996012       27.0367554132      -20.6485486831  MEMB      163             0.0000000000
     18924       163  POPC      H15A           24.8131915131       26.5609540569      -19.8270260401  MEMB      163             0.0000000000
     18925       163  POPC      H15B           23.8134084327       27.9086737214      -20.2349799510  MEMB      163             0.0000000000
     18926       163  POPC      H15C           24.8489164277       27.2130959712      -21.5607576114  MEMB      163             0.0000000000
     18927       163  POPC      C11            22.6600259935       25.8393977776      -18.3735752993  MEMB      163             0.0000000000
     18928       163  POPC      H11A           21.7479793687       25.8231530782      -17.7393607856  MEMB      163             0.0000000000
     18929       163  POPC      H11B           23.2947047843       26.7314933620      -18.1847122402  MEMB      163             0.0000000000
     18930       163  POPC      P              24.6172266449       24.5163567079      -17.1134952754  MEMB      163             0.0000000000
     18931       163  POPC      O13            24.9776230184       25.8925740142      -16.6208989100  MEMB      163             0.0000000000
     18932       163  POPC      O14            25.7272810011       23.7020891621      -17.7490815068  MEMB      163             0.0000000000
     18933       163  POPC      O12            23.4531003662       24.6705898018      -18.2525177361  MEMB      163             0.0000000000
     18934       163  POPC      O11            23.9456493374       23.6898756573      -15.9345109299  MEMB      163             0.0000000000
     18935       163  POPC      C1             22.5631204034       23.7234448949      -15.6252818497  MEMB      163             0.0000000000
     18936       163  POPC      HA             22.2552085604       22.8634761731      -14.9928537593  MEMB      163             0.0000000000
     18937       163  POPC      HB             21.9263240444       23.6754606238      -16.5344072743  MEMB      163             0.0000000000
     18938       163  POPC      C2             22.4061405064       24.9754864038      -14.7017249053  MEMB      163             0.0000000000
     18939       163  POPC      HS             22.5305461174       25.8978093565      -15.3084905431  MEMB      163             0.0000000000
     18940       163  POPC      O21            23.3758916372       24.9102006693      -13.6055598027  MEMB      163             0.0000000000
     18941       163  POPC      C21            23.9892385302       25.9315982149      -13.3362672779  MEMB      163             0.0000000000
     18942       163  POPC      O22            23.7589015578       27.1075069926      -13.6015843505  MEMB      163             0.0000000000
     18943       163  POPC      C22            25.2245657424       25.5823248455      -12.5157473298  MEMB      163             0.0000000000
     18944       163  POPC      H2R            26.0895298712       25.7463436105      -13.1934321485  MEMB      163             0.0000000000
     18945       163  POPC      H2S            25.4039589495       24.5544243213      -12.1342250763  MEMB      163             0.0000000000
     18946       163  POPC      C3             20.9873132188       25.0156580877      -14.1238202540  MEMB      163             0.0000000000
     18947       163  POPC      HX             20.8111020920       24.1303789125      -13.4760926589  MEMB      163             0.0000000000
     18948       163  POPC      HY             20.1431847945       24.8735219440      -14.8320331428  MEMB      163             0.0000000000
     18949       163  POPC      O31            20.7226101014       26.1711017097      -13.2185701681  MEMB      163             0.0000000000
     18950       163  POPC      C31            20.0269343033       27.2085737414      -13.6142214223  MEMB      163             0.0000000000
     18951       163  POPC      O32            19.6328486823       27.4291960537      -14.7581950593  MEMB      163             0.0000000000
     18952       163  POPC      C32            19.7438172666       28.1959496723      -12.4527896307  MEMB      163             0.0000000000
     18953       163  POPC      H2X            18.6430188566       28.3438222003      -12.4263710086  MEMB      163             0.0000000000
     18954       163  POPC      H2Y            20.1880595241       29.1819403708      -12.7073330266  MEMB      163             0.0000000000
     18955       163  POPC      C23            25.3268771616       26.4881521747      -11.2665482973  MEMB      163             0.0000000000
     18956       163  POPC      H3R            24.9436669324       27.4968703107      -11.5310455469  MEMB      163             0.0000000000
     18957       163  POPC      H3S            26.4024719349       26.6528686430      -11.0423043549  MEMB      163             0.0000000000
     18958       163  POPC      C24            24.7138901539       26.0479295110       -9.9861441113  MEMB      163             0.0000000000
     18959       163  POPC      H4R            25.1738193290       25.1148140121       -9.5961675070  MEMB      163             0.0000000000
     18960       163  POPC      H4S            23.6174066630       25.9700392956      -10.1473200518  MEMB      163             0.0000000000
     18961       163  POPC      C25            24.6943392385       27.1699831261       -8.9173276784  MEMB      163             0.0000000000
     18962       163  POPC      H5R            24.6982831843       28.1847252941       -9.3696589312  MEMB      163             0.0000000000
     18963       163  POPC      H5S            25.6346758649       27.1340115080       -8.3267392208  MEMB      163             0.0000000000
     18964       163  POPC      C26            23.3789061042       27.1442689264       -7.9983732594  MEMB      163             0.0000000000
     18965       163  POPC      H6R            22.5044544861       27.2382994159       -8.6772056318  MEMB      163             0.0000000000
     18966       163  POPC      H6S            23.4450215150       28.0549820057       -7.3654821048  MEMB      163             0.0000000000
     18967       163  POPC      C27            23.4101544155       25.9432980725       -7.0720104015  MEMB      163             0.0000000000
     18968       163  POPC      H7R            24.2788016454       26.0377495220       -6.3858238927  MEMB      163             0.0000000000
     18969       163  POPC      H7S            23.6834285039       25.0562855697       -7.6826257337  MEMB      163             0.0000000000
     18970       163  POPC      C28            22.1641755083       25.6809791565       -6.1414169170  MEMB      163             0.0000000000
     18971       163  POPC      H8R            22.1130631221       26.5839361343       -5.4961439695  MEMB      163             0.0000000000
     18972       163  POPC      H8S            22.2987225785       24.9019915616       -5.3607784538  MEMB      163             0.0000000000
     18973       163  POPC      C29            20.8412982444       25.6899745186       -6.8341529230  MEMB      163             0.0000000000
     18974       163  POPC      H91            20.7266682176       26.1816344525       -7.8114612949  MEMB      163             0.0000000000
     18975       163  POPC      C210           19.7452370531       25.1134047402       -6.3486186229  MEMB      163             0.0000000000
     18976       163  POPC      H101           18.8466352932       25.2341280922       -6.9714670925  MEMB      163             0.0000000000
     18977       163  POPC      C211           19.6398502810       24.3403447332       -5.0628574551  MEMB      163             0.0000000000
     18978       163  POPC      H11R           20.6280121132       24.2557398448       -4.5621592224  MEMB      163             0.0000000000
     18979       163  POPC      H11S           19.2829506877       23.3348946191       -5.3727181908  MEMB      163             0.0000000000
     18980       163  POPC      C212           18.4692784344       24.7767729364       -4.1634140983  MEMB      163             0.0000000000
     18981       163  POPC      H12R           18.3774361936       24.0007322324       -3.3737015367  MEMB      163             0.0000000000
     18982       163  POPC      H12S           17.5064830467       24.6998614358       -4.7124410370  MEMB      163             0.0000000000
     18983       163  POPC      C213           18.5670032441       26.1795633636       -3.5890803803  MEMB      163             0.0000000000
     18984       163  POPC      H13R           17.6505555837       26.4779945697       -3.0364636152  MEMB      163             0.0000000000
     18985       163  POPC      H13S           18.8122197574       26.8838961181       -4.4125511606  MEMB      163             0.0000000000
     18986       163  POPC      C214           19.8577754332       26.2911284416       -2.6646772772  MEMB      163             0.0000000000
     18987       163  POPC      H14R           20.6992697975       25.6368661774       -2.9779659164  MEMB      163             0.0000000000
     18988       163  POPC      H14S           19.6478175091       25.8484532680       -1.6675441802  MEMB      163             0.0000000000
     18989       163  POPC      C215           20.3992823930       27.7440332582       -2.5411352471  MEMB      163             0.0000000000
     18990       163  POPC      H15R           19.5846344488       28.4478512876       -2.2667104371  MEMB      163             0.0000000000
     18991       163  POPC      H15S           20.8204019407       28.1073212681       -3.5029063687  MEMB      163             0.0000000000
     18992       163  POPC      C216           21.5778853721       27.9393080612       -1.5948571526  MEMB      163             0.0000000000
     18993       163  POPC      H16R           21.4121860186       27.2909184733       -0.7080332779  MEMB      163             0.0000000000
     18994       163  POPC      H16S           21.6800998167       29.0123026315       -1.3254953246  MEMB      163             0.0000000000
     18995       163  POPC      C217           22.8763300382       27.7913514194       -2.3526939302  MEMB      163             0.0000000000
     18996       163  POPC      H17R           22.7178506074       28.4271319309       -3.2499056773  MEMB      163             0.0000000000
     18997       163  POPC      H17S           22.9348168861       26.7298675714       -2.6754195528  MEMB      163             0.0000000000
     18998       163  POPC      C218           24.1414668314       28.1516726302       -1.5796554225  MEMB      163             0.0000000000
     18999       163  POPC      H18R           24.0881332830       29.2063257462       -1.2344268171  MEMB      163             0.0000000000
     19000       163  POPC      H18S           25.0246420774       27.8351809598       -2.1747648532  MEMB      163             0.0000000000
     19001       163  POPC      H18T           24.2876416428       27.5375807794       -0.6654103724  MEMB      163             0.0000000000
     19002       163  POPC      C33            20.2052866331       27.7119673562      -11.0248488242  MEMB      163             0.0000000000
     19003       163  POPC      H3X            20.4933970720       28.6139234552      -10.4436533878  MEMB      163             0.0000000000
     19004       163  POPC      H3Y            21.1459811326       27.1360383095      -11.1579679205  MEMB      163             0.0000000000
     19005       163  POPC      C34            19.2173533070       26.7928322325      -10.2550376627  MEMB      163             0.0000000000
     19006       163  POPC      H4X            18.1690605326       27.1587209770      -10.2941284721  MEMB      163             0.0000000000
     19007       163  POPC      H4Y            19.5607218080       26.9159066555       -9.2056230452  MEMB      163             0.0000000000
     19008       163  POPC      C35            19.2547315173       25.2958864840      -10.7074584877  MEMB      163             0.0000000000
     19009       163  POPC      H5X            18.9457634934       25.2477818884      -11.7735480074  MEMB      163             0.0000000000
     19010       163  POPC      H5Y            18.4813661391       24.7115403175      -10.1645354771  MEMB      163             0.0000000000
     19011       163  POPC      C36            20.6269848805       24.6422179391      -10.5444883919  MEMB      163             0.0000000000
     19012       163  POPC      H6X            20.8223925391       24.6806311486       -9.4514831780  MEMB      163             0.0000000000
     19013       163  POPC      H6Y            21.4356681915       25.2584225287      -10.9924213715  MEMB      163             0.0000000000
     19014       163  POPC      C37            20.7183245251       23.1692683111      -10.8638491748  MEMB      163             0.0000000000
     19015       163  POPC      H7X            20.0752553942       23.0507142314      -11.7620295772  MEMB      163             0.0000000000
     19016       163  POPC      H7Y            20.2773833498       22.5566146008      -10.0486510553  MEMB      163             0.0000000000
     19017       163  POPC      C38            22.1024628095       22.5491782312      -11.1735948720  MEMB      163             0.0000000000
     19018       163  POPC      H8X            22.3065937075       22.8320815086      -12.2284018304  MEMB      163             0.0000000000
     19019       163  POPC      H8Y            21.9532754698       21.4525751324      -11.0759950272  MEMB      163             0.0000000000
     19020       163  POPC      C39            23.2469173098       22.8722549450      -10.2244662739  MEMB      163             0.0000000000
     19021       163  POPC      H9X            23.4440729673       23.9632165259      -10.1519861632  MEMB      163             0.0000000000
     19022       163  POPC      H9Y            24.1844960602       22.4182192368      -10.6106246726  MEMB      163             0.0000000000
     19023       163  POPC      C310           23.0459128722       22.3566803594       -8.7942347471  MEMB      163             0.0000000000
     19024       163  POPC      H10X           22.5191684408       21.3836789173       -8.8948800816  MEMB      163             0.0000000000
     19025       163  POPC      H10Y           22.3545696852       23.0261547493       -8.2391033156  MEMB      163             0.0000000000
     19026       163  POPC      C311           24.3685481802       22.2301344391       -8.0068608135  MEMB      163             0.0000000000
     19027       163  POPC      H11X           25.1037000832       23.0631033381       -8.0128168932  MEMB      163             0.0000000000
     19028       163  POPC      H11Y           24.8346532794       21.4390732239       -8.6323920626  MEMB      163             0.0000000000
     19029       163  POPC      C312           24.3378675223       21.7230245576       -6.5263358872  MEMB      163             0.0000000000
     19030       163  POPC      H12X           25.3923435051       21.6352159044       -6.1876761454  MEMB      163             0.0000000000
     19031       163  POPC      H12Y           23.9386754094       20.6959141288       -6.3848789872  MEMB      163             0.0000000000
     19032       163  POPC      C313           23.6898394114       22.5933830634       -5.4294061108  MEMB      163             0.0000000000
     19033       163  POPC      H13X           22.6034686054       22.6245077057       -5.6599497897  MEMB      163             0.0000000000
     19034       163  POPC      H13Y           24.1434012403       23.5927481866       -5.6022420171  MEMB      163             0.0000000000
     19035       163  POPC      C314           24.1276245505       22.0870993197       -4.0207956199  MEMB      163             0.0000000000
     19036       163  POPC      H14X           25.1849834703       22.3800566480       -3.8461843265  MEMB      163             0.0000000000
     19037       163  POPC      H14Y           23.9586783186       20.9911132262       -3.9530243892  MEMB      163             0.0000000000
     19038       163  POPC      C315           23.3594286414       22.6696279247       -2.8594658940  MEMB      163             0.0000000000
     19039       163  POPC      H15X           22.3103289640       22.3199637567       -2.7524814712  MEMB      163             0.0000000000
     19040       163  POPC      H15Y           23.2211163900       23.7705104228       -2.9164610517  MEMB      163             0.0000000000
     19041       163  POPC      C316           24.0912215832       22.3124783599       -1.5416944418  MEMB      163             0.0000000000
     19042       163  POPC      H16X           25.0660567310       22.8397636153       -1.6190772888  MEMB      163             0.0000000000
     19043       163  POPC      H16Y           24.2344332284       21.2249410653       -1.3654171764  MEMB      163             0.0000000000
     19044       163  POPC      H16Z           23.4791237167       22.6795620085       -0.6902797904  MEMB      163             0.0000000000
     19045       164  CHL1      C3             34.4108042451       -4.6078056818      -17.3364500000  MEMB      164             0.0000000000
     19046       164  CHL1      H3             35.1823973965       -3.8084749719      -17.3301700000  MEMB      164             0.0000000000
     19047       164  CHL1      O3             33.8917881549       -4.8205583782      -18.6635500000  MEMB      164             0.0000000000
     19048       164  CHL1      H3'            34.6868326847       -5.1083604610      -19.1181800000  MEMB      164             0.0000000000
     19049       164  CHL1      C4             35.2105000035       -5.8174850800      -16.8497800000  MEMB      164             0.0000000000
     19050       164  CHL1      H4A            34.6393920874       -6.7021380786      -17.2041200000  MEMB      164             0.0000000000
     19051       164  CHL1      H4B            36.1133300827       -5.8034323996      -17.4971000000  MEMB      164             0.0000000000
     19052       164  CHL1      C5             35.4596593831       -5.9763033663      -15.3495300000  MEMB      164             0.0000000000
     19053       164  CHL1      C6             36.6725656860       -6.2449714406      -14.9110500000  MEMB      164             0.0000000000
     19054       164  CHL1      H6             37.5545599710       -6.3779929166      -15.5547900000  MEMB      164             0.0000000000
     19055       164  CHL1      C7             37.0117578410       -6.3047851317      -13.4687200000  MEMB      164             0.0000000000
     19056       164  CHL1      H7A            37.5296191444       -7.2852159913      -13.3987600000  MEMB      164             0.0000000000
     19057       164  CHL1      H7B            37.5906637442       -5.3757991184      -13.2785300000  MEMB      164             0.0000000000
     19058       164  CHL1      C8             35.7234052946       -6.4618968621      -12.5386400000  MEMB      164             0.0000000000
     19059       164  CHL1      H8             35.3457773681       -7.4835324119      -12.7576900000  MEMB      164             0.0000000000
     19060       164  CHL1      C14            36.2097850462       -6.3072442717      -11.1058800000  MEMB      164             0.0000000000
     19061       164  CHL1      H14            36.8379019616       -5.3938513428      -11.0317000000  MEMB      164             0.0000000000
     19062       164  CHL1      C15            37.2143870886       -7.3079236438      -10.5634000000  MEMB      164             0.0000000000
     19063       164  CHL1      H15A           36.9226950670       -8.3026999617      -10.9629900000  MEMB      164             0.0000000000
     19064       164  CHL1      H15B           38.2142620725       -7.0036149825      -10.9401900000  MEMB      164             0.0000000000
     19065       164  CHL1      C16            37.0392037387       -7.3123193723       -9.0652500000  MEMB      164             0.0000000000
     19066       164  CHL1      H16A           36.8557757666       -8.3496073144       -8.7120900000  MEMB      164             0.0000000000
     19067       164  CHL1      H16B           38.0406932193       -7.0441397907       -8.6659900000  MEMB      164             0.0000000000
     19068       164  CHL1      C17            35.8634345726       -6.3161489870       -8.7148100000  MEMB      164             0.0000000000
     19069       164  CHL1      H17            36.2885132338       -5.2934893882       -8.6264100000  MEMB      164             0.0000000000
     19070       164  CHL1      C13            35.0802252661       -6.3048527314      -10.0558700000  MEMB      164             0.0000000000
     19071       164  CHL1      C18            34.2672374670       -7.6180989014      -10.0681300000  MEMB      164             0.0000000000
     19072       164  CHL1      H18A           34.9188649893       -8.4530958764       -9.7327600000  MEMB      164             0.0000000000
     19073       164  CHL1      H18B           33.4387562208       -7.3651156037       -9.3724700000  MEMB      164             0.0000000000
     19074       164  CHL1      H18C           33.8104909958       -7.7669394968      -11.0699100000  MEMB      164             0.0000000000
     19075       164  CHL1      C12            34.2094936527       -5.0970712849      -10.4754000000  MEMB      164             0.0000000000
     19076       164  CHL1      H12A           33.4694255940       -5.1645047595       -9.6495300000  MEMB      164             0.0000000000
     19077       164  CHL1      H12B           34.8737383642       -4.2226353431      -10.3066900000  MEMB      164             0.0000000000
     19078       164  CHL1      C11            33.6222707890       -5.1536334045      -11.9285400000  MEMB      164             0.0000000000
     19079       164  CHL1      H11A           32.8160866068       -5.9164643722      -11.9783200000  MEMB      164             0.0000000000
     19080       164  CHL1      H11B           33.0879083744       -4.2348765899      -12.2520700000  MEMB      164             0.0000000000
     19081       164  CHL1      C9             34.7849764490       -5.3605817880      -12.9480200000  MEMB      164             0.0000000000
     19082       164  CHL1      H9             35.4632399803       -4.4857365931      -12.8535700000  MEMB      164             0.0000000000
     19083       164  CHL1      C10            34.3529546351       -5.4898431003      -14.4008300000  MEMB      164             0.0000000000
     19084       164  CHL1      C19            33.2431536499       -6.6141518917      -14.5196800000  MEMB      164             0.0000000000
     19085       164  CHL1      H19A           33.8038513814       -7.5613597166      -14.3688900000  MEMB      164             0.0000000000
     19086       164  CHL1      H19B           32.3395127948       -6.6232836025      -13.8734000000  MEMB      164             0.0000000000
     19087       164  CHL1      H19C           32.9448652978       -6.6829785143      -15.5876700000  MEMB      164             0.0000000000
     19088       164  CHL1      C1             33.8051065288       -4.1555632551      -14.9243500000  MEMB      164             0.0000000000
     19089       164  CHL1      H1A            32.9396301062       -3.8242130038      -14.3115800000  MEMB      164             0.0000000000
     19090       164  CHL1      H1B            34.6646080444       -3.4650857895      -14.7871100000  MEMB      164             0.0000000000
     19091       164  CHL1      C2             33.3416073806       -4.1113810809      -16.3678200000  MEMB      164             0.0000000000
     19092       164  CHL1      H2A            33.0219354028       -3.0768733306      -16.6166800000  MEMB      164             0.0000000000
     19093       164  CHL1      H2B            32.4696634581       -4.7874580116      -16.4980800000  MEMB      164             0.0000000000
     19094       164  CHL1      C20            35.1682340946       -6.6224970510       -7.3744800000  MEMB      164             0.0000000000
     19095       164  CHL1      H20            34.8570204871       -7.6870043074       -7.4401000000  MEMB      164             0.0000000000
     19096       164  CHL1      C21            34.0974731365       -5.6466509062       -7.0352800000  MEMB      164             0.0000000000
     19097       164  CHL1      H21A           33.1984225896       -5.7275194114       -7.6829600000  MEMB      164             0.0000000000
     19098       164  CHL1      H21B           34.4299579130       -4.5865934329       -7.0279100000  MEMB      164             0.0000000000
     19099       164  CHL1      H21C           33.6131748775       -5.7255461458       -6.0385100000  MEMB      164             0.0000000000
     19100       164  CHL1      C22            36.1474903715       -6.6497765045       -6.1799200000  MEMB      164             0.0000000000
     19101       164  CHL1      H22A           36.9788653742       -7.3676903284       -6.3464400000  MEMB      164             0.0000000000
     19102       164  CHL1      H22B           36.5449991199       -5.6123718894       -6.1706600000  MEMB      164             0.0000000000
     19103       164  CHL1      C23            35.4761195567       -6.8631863775       -4.8117000000  MEMB      164             0.0000000000
     19104       164  CHL1      H23A           34.9435120873       -5.9291374615       -4.5320700000  MEMB      164             0.0000000000
     19105       164  CHL1      H23B           34.7272265006       -7.6800088248       -4.8909400000  MEMB      164             0.0000000000
     19106       164  CHL1      C24            36.5103686772       -7.1078495785       -3.7086500000  MEMB      164             0.0000000000
     19107       164  CHL1      H24A           36.9624611177       -8.0725096463       -4.0238500000  MEMB      164             0.0000000000
     19108       164  CHL1      H24B           37.2846961723       -6.3128166312       -3.6569300000  MEMB      164             0.0000000000
     19109       164  CHL1      C25            36.0105358318       -7.1890202577       -2.2308500000  MEMB      164             0.0000000000
     19110       164  CHL1      H25            35.6502065996       -6.2084514346       -1.8527300000  MEMB      164             0.0000000000
     19111       164  CHL1      C26            34.8799596920       -8.2401363189       -2.1699800000  MEMB      164             0.0000000000
     19112       164  CHL1      H26A           34.4596993640       -8.3372755820       -1.1461300000  MEMB      164             0.0000000000
     19113       164  CHL1      H26B           33.9981921400       -7.8554933504       -2.7257400000  MEMB      164             0.0000000000
     19114       164  CHL1      H26C           35.2047712301       -9.2341433862       -2.5451900000  MEMB      164             0.0000000000
     19115       164  CHL1      C27            37.1008987994       -7.7203371755       -1.2273300000  MEMB      164             0.0000000000
     19116       164  CHL1      H27A           36.6610186599       -7.7470241796       -0.2074700000  MEMB      164             0.0000000000
     19117       164  CHL1      H27B           37.3313067826       -8.7735481096       -1.4956200000  MEMB      164             0.0000000000
     19118       164  CHL1      H27C           38.0314592106       -7.1306400420       -1.3709500000  MEMB      164             0.0000000000
     19119       165  SAPC      N             -19.6309250164       27.8403902361      -21.9847065732  MEMB      165             0.0000000000
     19120       165  SAPC      C12           -18.9624029542       27.2086349147      -20.7303498590  MEMB      165             0.0000000000
     19121       165  SAPC      H12A          -17.9121645792       27.2103586257      -20.9821363941  MEMB      165             0.0000000000
     19122       165  SAPC      H12B          -19.3651299597       26.2196965182      -20.5684492498  MEMB      165             0.0000000000
     19123       165  SAPC      C13           -19.6132989788       29.3570948991      -21.7379395138  MEMB      165             0.0000000000
     19124       165  SAPC      H13A          -19.9730511797       29.7899393641      -20.8161890298  MEMB      165             0.0000000000
     19125       165  SAPC      H13B          -18.6053285948       29.6110342536      -22.0310442451  MEMB      165             0.0000000000
     19126       165  SAPC      H13C          -20.2651876248       29.7676023443      -22.4948574459  MEMB      165             0.0000000000
     19127       165  SAPC      C14           -18.9146229517       27.3663134309      -23.1936409445  MEMB      165             0.0000000000
     19128       165  SAPC      H14A          -17.8391394176       27.4246732583      -23.1140837728  MEMB      165             0.0000000000
     19129       165  SAPC      H14B          -19.1104578361       26.3139270890      -23.3369299194  MEMB      165             0.0000000000
     19130       165  SAPC      H14C          -19.2410436562       28.0023256389      -24.0031707123  MEMB      165             0.0000000000
     19131       165  SAPC      C15           -21.0798962596       27.3448613609      -22.0250980920  MEMB      165             0.0000000000
     19132       165  SAPC      H15A          -21.4440389880       27.5521309582      -21.0296888536  MEMB      165             0.0000000000
     19133       165  SAPC      H15B          -21.6748679214       27.9984019315      -22.6458180891  MEMB      165             0.0000000000
     19134       165  SAPC      H15C          -21.1556704471       26.3668409721      -22.4769103514  MEMB      165             0.0000000000
     19135       165  SAPC      C11           -18.9692484669       27.9805393843      -19.3843348712  MEMB      165             0.0000000000
     19136       165  SAPC      H11A          -18.2586999205       28.8082176065      -19.5950253613  MEMB      165             0.0000000000
     19137       165  SAPC      H11B          -18.6664815718       27.3241281921      -18.5406658118  MEMB      165             0.0000000000
     19138       165  SAPC      P             -21.2566436589       27.8888114115      -18.1811296689  MEMB      165             0.0000000000
     19139       165  SAPC      O13           -22.1359520745       27.2217581203      -19.1494228486  MEMB      165             0.0000000000
     19140       165  SAPC      O14           -20.6061509429       27.0298727142      -17.2175451446  MEMB      165             0.0000000000
     19141       165  SAPC      O12           -20.1514246161       28.7048070918      -18.9841687498  MEMB      165             0.0000000000
     19142       165  SAPC      O11           -22.0075918731       29.0580383582      -17.4116637305  MEMB      165             0.0000000000
     19143       165  SAPC      C1            -22.5169569282       30.1967219948      -18.0957361227  MEMB      165             0.0000000000
     19144       165  SAPC      HA            -21.7415538475       30.5775270484      -18.7943480677  MEMB      165             0.0000000000
     19145       165  SAPC      HB            -23.4780459258       30.0254193966      -18.6260984436  MEMB      165             0.0000000000
     19146       165  SAPC      C2            -22.8513215520       31.3812565059      -17.1283183353  MEMB      165             0.0000000000
     19147       165  SAPC      HS            -23.1506842199       32.2845985372      -17.7016213006  MEMB      165             0.0000000000
     19148       165  SAPC      O21           -21.7661859003       31.6761008465      -16.2294171610  MEMB      165             0.0000000000
     19149       165  SAPC      C21           -20.6601543691       32.1761323717      -16.7368718098  MEMB      165             0.0000000000
     19150       165  SAPC      O22           -20.3102708827       32.2591832277      -17.8975452536  MEMB      165             0.0000000000
     19151       165  SAPC      C22           -19.7103222853       32.5421410268      -15.6504077236  MEMB      165             0.0000000000
     19152       165  SAPC      H2R           -19.1747363733       33.4282684269      -16.0532068745  MEMB      165             0.0000000000
     19153       165  SAPC      H2S           -20.3043477936       32.8550499590      -14.7652281144  MEMB      165             0.0000000000
     19154       165  SAPC      C3            -24.0213584418       31.0222728200      -16.1571513321  MEMB      165             0.0000000000
     19155       165  SAPC      HX            -25.0609750031       30.9202796923      -16.5354579398  MEMB      165             0.0000000000
     19156       165  SAPC      HY            -24.1002616411       31.8275791883      -15.3958519422  MEMB      165             0.0000000000
     19157       165  SAPC      O31           -23.6888338139       29.7975605935      -15.4375192735  MEMB      165             0.0000000000
     19158       165  SAPC      C31           -24.2886412910       28.6312191863      -15.7392955031  MEMB      165             0.0000000000
     19159       165  SAPC      O32           -25.1090726576       28.5249193516      -16.6634587259  MEMB      165             0.0000000000
     19160       165  SAPC      C32           -23.6692709599       27.4927227466      -14.7574427006  MEMB      165             0.0000000000
     19161       165  SAPC      H2X           -22.9297512158       28.0271182351      -14.1235239945  MEMB      165             0.0000000000
     19162       165  SAPC      H2Y           -23.1177419853       26.6641134779      -15.2509443371  MEMB      165             0.0000000000
     19163       165  SAPC      C23           -18.6806405895       31.4372886070      -15.3962905218  MEMB      165             0.0000000000
     19164       165  SAPC      H3R           -17.7630370227       31.9858340951      -15.0939280964  MEMB      165             0.0000000000
     19165       165  SAPC      H3S           -18.4512210094       30.9073118842      -16.3454018399  MEMB      165             0.0000000000
     19166       165  SAPC      C24           -19.0863226994       30.4622225142      -14.2069625122  MEMB      165             0.0000000000
     19167       165  SAPC      H4R           -18.5829520705       29.5744100025      -14.6459704756  MEMB      165             0.0000000000
     19168       165  SAPC      H4S           -20.1961417564       30.4143125729      -14.2250548756  MEMB      165             0.0000000000
     19169       165  SAPC      C25           -18.5077003793       30.7510372398      -12.7766168417  MEMB      165             0.0000000000
     19170       165  SAPC      H5R           -17.4294928737       30.9618957496      -12.8314521452  MEMB      165             0.0000000000
     19171       165  SAPC      C26           -19.2225713128       30.9121025826      -11.6137049100  MEMB      165             0.0000000000
     19172       165  SAPC      H6R           -18.7307493834       30.9914589178      -10.6329833932  MEMB      165             0.0000000000
     19173       165  SAPC      C27           -20.7132705937       30.7858446669      -11.4587547120  MEMB      165             0.0000000000
     19174       165  SAPC      H7R           -20.8928794440       30.6653977738      -10.3690048552  MEMB      165             0.0000000000
     19175       165  SAPC      H7S           -20.9815045020       29.7790677769      -11.8444640057  MEMB      165             0.0000000000
     19176       165  SAPC      C28           -21.6067301603       31.8696624079      -12.0279233567  MEMB      165             0.0000000000
     19177       165  SAPC      H8R           -21.7023189259       31.8672646020      -13.1237595461  MEMB      165             0.0000000000
     19178       165  SAPC      C29           -22.3759324533       32.7129719567      -11.3347298949  MEMB      165             0.0000000000
     19179       165  SAPC      H9R           -23.0019248182       33.3923330885      -11.9318914328  MEMB      165             0.0000000000
     19180       165  SAPC      C210          -22.6653062067       32.9397071799       -9.9155368441  MEMB      165             0.0000000000
     19181       165  SAPC      H10R          -23.4997998709       33.6731512618       -9.9161671592  MEMB      165             0.0000000000
     19182       165  SAPC      H10S          -21.8058177979       33.5045812886       -9.4953967265  MEMB      165             0.0000000000
     19183       165  SAPC      C211          -23.0198687546       31.7911189342       -9.0374805226  MEMB      165             0.0000000000
     19184       165  SAPC      H11R          -23.8145778454       31.2084547894       -9.5262957031  MEMB      165             0.0000000000
     19185       165  SAPC      C212          -22.4669658202       31.5023807162       -7.8190418031  MEMB      165             0.0000000000
     19186       165  SAPC      H12R          -22.7676431703       30.5995939695       -7.2671642570  MEMB      165             0.0000000000
     19187       165  SAPC      C213          -21.3788413226       32.2455845475       -7.0240210915  MEMB      165             0.0000000000
     19188       165  SAPC      H13R          -20.9410553107       33.0562650008       -7.6448760652  MEMB      165             0.0000000000
     19189       165  SAPC      H13S          -20.5018534132       31.5743597881       -6.9028991543  MEMB      165             0.0000000000
     19190       165  SAPC      C214          -21.9283520864       32.7433434677       -5.6950045787  MEMB      165             0.0000000000
     19191       165  SAPC      H14R          -22.9723919394       33.0865535045       -5.7417787992  MEMB      165             0.0000000000
     19192       165  SAPC      C215          -21.2754294789       32.9782040501       -4.5092261768  MEMB      165             0.0000000000
     19193       165  SAPC      H15R          -21.9200117273       33.2582655745       -3.6630117051  MEMB      165             0.0000000000
     19194       165  SAPC      C216          -19.7649207545       32.8240106924       -4.3244412035  MEMB      165             0.0000000000
     19195       165  SAPC      H16R          -19.3100473713       33.6365875072       -3.7185280960  MEMB      165             0.0000000000
     19196       165  SAPC      H16S          -19.2450814552       32.8390898199       -5.3062054642  MEMB      165             0.0000000000
     19197       165  SAPC      C217          -19.2177586493       31.5701695049       -3.5506785841  MEMB      165             0.0000000000
     19198       165  SAPC      H17R          -18.1110555405       31.6022530539       -3.6428739925  MEMB      165             0.0000000000
     19199       165  SAPC      H17S          -19.7563042788       30.6746646596       -3.9279870485  MEMB      165             0.0000000000
     19200       165  SAPC      C218          -19.5074002874       31.7223576852       -2.0130125060  MEMB      165             0.0000000000
     19201       165  SAPC      H18R          -20.6059905803       31.7843951656       -1.8594793771  MEMB      165             0.0000000000
     19202       165  SAPC      H18S          -19.0959007901       32.7113028245       -1.7180930120  MEMB      165             0.0000000000
     19203       165  SAPC      C219          -18.7841821408       30.6502009047       -1.1246237541  MEMB      165             0.0000000000
     19204       165  SAPC      H19R          -18.7998794297       31.1175763620       -0.1168363205  MEMB      165             0.0000000000
     19205       165  SAPC      H19S          -17.7328030780       30.4758452023       -1.4385061587  MEMB      165             0.0000000000
     19206       165  SAPC      C220          -19.4761752511       29.3239201939       -1.0834606545  MEMB      165             0.0000000000
     19207       165  SAPC      H20R          -18.8954097978       28.5832528425       -0.4931678739  MEMB      165             0.0000000000
     19208       165  SAPC      H20S          -19.5865243521       28.8820261853       -2.0968080384  MEMB      165             0.0000000000
     19209       165  SAPC      H20T          -20.5148701545       29.3934573082       -0.6953902412  MEMB      165             0.0000000000
     19210       165  SAPC      C33           -24.8035696237       26.8787000265      -13.9705005196  MEMB      165             0.0000000000
     19211       165  SAPC      H3X           -25.6399537945       26.7225578210      -14.6849253281  MEMB      165             0.0000000000
     19212       165  SAPC      H3Y           -25.1668715461       27.6466540166      -13.2545542503  MEMB      165             0.0000000000
     19213       165  SAPC      C34           -24.3494774875       25.6487908269      -13.1239344833  MEMB      165             0.0000000000
     19214       165  SAPC      H4X           -24.2301493270       24.7468774214      -13.7616129435  MEMB      165             0.0000000000
     19215       165  SAPC      H4Y           -25.1390348720       25.4428755871      -12.3699322376  MEMB      165             0.0000000000
     19216       165  SAPC      C35           -23.0087795803       25.7726514535      -12.3663470207  MEMB      165             0.0000000000
     19217       165  SAPC      H5X           -22.2633869573       25.6858733242      -13.1856032474  MEMB      165             0.0000000000
     19218       165  SAPC      H5Y           -22.8525712714       24.8457539746      -11.7740794722  MEMB      165             0.0000000000
     19219       165  SAPC      C36           -22.8703245494       27.0077295845      -11.3563037324  MEMB      165             0.0000000000
     19220       165  SAPC      H6X           -23.7425817165       26.9915469624      -10.6683887126  MEMB      165             0.0000000000
     19221       165  SAPC      H6Y           -23.1440332216       27.9291066305      -11.9135008809  MEMB      165             0.0000000000
     19222       165  SAPC      C37           -21.5749493135       27.1984913528      -10.5893647063  MEMB      165             0.0000000000
     19223       165  SAPC      H7X           -21.4097400800       28.2658637778      -10.3290895117  MEMB      165             0.0000000000
     19224       165  SAPC      H7Y           -20.7656951141       26.8573225360      -11.2698292032  MEMB      165             0.0000000000
     19225       165  SAPC      C38           -21.6024486352       26.3278378502       -9.2722744994  MEMB      165             0.0000000000
     19226       165  SAPC      H8X           -20.7125533344       26.5597233436       -8.6488674653  MEMB      165             0.0000000000
     19227       165  SAPC      H8Y           -21.6531416060       25.2252863237       -9.3992851721  MEMB      165             0.0000000000
     19228       165  SAPC      C39           -22.6445516594       26.7583828500       -8.2541133701  MEMB      165             0.0000000000
     19229       165  SAPC      H9X           -23.6544232734       26.4182922463       -8.5684671759  MEMB      165             0.0000000000
     19230       165  SAPC      H9Y           -22.6629352455       27.8692092050       -8.2610493057  MEMB      165             0.0000000000
     19231       165  SAPC      C310          -22.4476852376       26.2034891052       -6.8408925076  MEMB      165             0.0000000000
     19232       165  SAPC      H10X          -21.8723422135       25.2649242500       -6.9905502488  MEMB      165             0.0000000000
     19233       165  SAPC      H10Y          -23.3933427204       26.0167605335       -6.2884566557  MEMB      165             0.0000000000
     19234       165  SAPC      C311          -21.5992816475       27.1927745835       -6.0061501335  MEMB      165             0.0000000000
     19235       165  SAPC      H11X          -22.2133839540       28.1060730980       -5.8542127791  MEMB      165             0.0000000000
     19236       165  SAPC      H11Y          -20.6798689713       27.4496220811       -6.5745082034  MEMB      165             0.0000000000
     19237       165  SAPC      C312          -21.0111344432       26.5593481918       -4.7315462600  MEMB      165             0.0000000000
     19238       165  SAPC      H12X          -20.4293352580       27.2290677772       -4.0627367059  MEMB      165             0.0000000000
     19239       165  SAPC      H12Y          -20.2424839745       25.7973456822       -4.9822451358  MEMB      165             0.0000000000
     19240       165  SAPC      C313          -22.0330525576       25.8335340822       -3.8766643512  MEMB      165             0.0000000000
     19241       165  SAPC      H13X          -21.5012345299       25.2293180874       -3.1108878049  MEMB      165             0.0000000000
     19242       165  SAPC      H13Y          -22.5114313534       24.9678192662       -4.3826423411  MEMB      165             0.0000000000
     19243       165  SAPC      C314          -23.1839271583       26.7804371448       -3.3569555678  MEMB      165             0.0000000000
     19244       165  SAPC      H14X          -23.8434882221       26.1192848865       -2.7551431096  MEMB      165             0.0000000000
     19245       165  SAPC      H14Y          -23.7466665516       27.1656484665       -4.2340291342  MEMB      165             0.0000000000
     19246       165  SAPC      C315          -22.5659716377       27.9610260072       -2.5786649388  MEMB      165             0.0000000000
     19247       165  SAPC      H15X          -21.9909466453       28.6069536202       -3.2761221371  MEMB      165             0.0000000000
     19248       165  SAPC      H15Y          -21.9340911294       27.6665102320       -1.7136178593  MEMB      165             0.0000000000
     19249       165  SAPC      C316          -23.7246511849       28.8741844284       -2.0370170121  MEMB      165             0.0000000000
     19250       165  SAPC      H16X          -24.1609463952       28.3441829508       -1.1634798856  MEMB      165             0.0000000000
     19251       165  SAPC      H16Y          -24.4683205214       28.9780325915       -2.8558530600  MEMB      165             0.0000000000
     19252       165  SAPC      C317          -23.3522766598       30.3012636760       -1.5736732894  MEMB      165             0.0000000000
     19253       165  SAPC      H17X          -22.6695690677       30.7265263691       -2.3400824772  MEMB      165             0.0000000000
     19254       165  SAPC      H17Y          -22.8178481660       30.2913412136       -0.5997075521  MEMB      165             0.0000000000
     19255       165  SAPC      C318          -24.4798926581       31.3579327607       -1.4575598358  MEMB      165             0.0000000000
     19256       165  SAPC      H18X          -25.1557862653       31.3698358840       -2.3392325663  MEMB      165             0.0000000000
     19257       165  SAPC      H18Y          -24.0017922029       32.3607970586       -1.4596365238  MEMB      165             0.0000000000
     19258       165  SAPC      H18Z          -25.0980237535       31.2372846798       -0.5423116070  MEMB      165             0.0000000000
     19259       166  SAPS      N             -11.9518582230      -33.8853317465      -19.0508822784  MEMB      166             0.0000000000
     19260       166  SAPS      HN1           -11.8477902347      -34.8868885351      -18.7907786236  MEMB      166             0.0000000000
     19261       166  SAPS      HN2           -12.5526778125      -33.3757351337      -18.3719661399  MEMB      166             0.0000000000
     19262       166  SAPS      HN3           -12.4523269241      -33.9419062051      -19.9607890684  MEMB      166             0.0000000000
     19263       166  SAPS      C12           -10.6353115348      -33.1294100989      -19.3107795034  MEMB      166             0.0000000000
     19264       166  SAPS      H12A          -10.8818533366      -32.2258097566      -19.8484815190  MEMB      166             0.0000000000
     19265       166  SAPS      C13            -9.8557453500      -32.8662087193      -17.9390093232  MEMB      166             0.0000000000
     19266       166  SAPS      O13A          -10.4981865735      -33.1525601118      -16.8460075102  MEMB      166             0.0000000000
     19267       166  SAPS      O13B           -8.7989356593      -32.2579359942      -17.9664188583  MEMB      166             0.0000000000
     19268       166  SAPS      C11            -9.7678013356      -34.0455196140      -20.2106283362  MEMB      166             0.0000000000
     19269       166  SAPS      H11A          -10.3731989942      -34.5611337915      -20.9864870554  MEMB      166             0.0000000000
     19270       166  SAPS      H11B           -9.3127016309      -34.7927261998      -19.5258746421  MEMB      166             0.0000000000
     19271       166  SAPS      P              -7.5944250217      -33.6031977457      -21.7980197853  MEMB      166             0.0000000000
     19272       166  SAPS      O13            -8.0065581902      -34.6895073158      -22.7293922885  MEMB      166             0.0000000000
     19273       166  SAPS      O14            -7.0459561426      -32.3636424338      -22.3786844633  MEMB      166             0.0000000000
     19274       166  SAPS      O12            -8.8004275351      -33.2161762478      -20.8472685923  MEMB      166             0.0000000000
     19275       166  SAPS      O11            -6.4658186061      -34.1376209128      -20.9229090094  MEMB      166             0.0000000000
     19276       166  SAPS      C1             -5.8635369144      -33.5441686443      -19.7797010748  MEMB      166             0.0000000000
     19277       166  SAPS      HA             -4.8292681517      -33.2893788407      -20.0954400170  MEMB      166             0.0000000000
     19278       166  SAPS      HB             -6.3764266309      -32.5982529119      -19.5030992682  MEMB      166             0.0000000000
     19279       166  SAPS      C2             -5.8146740194      -34.5693408331      -18.6475864233  MEMB      166             0.0000000000
     19280       166  SAPS      HS             -5.2008286180      -35.4000900974      -19.0566956524  MEMB      166             0.0000000000
     19281       166  SAPS      O21            -7.0732254667      -35.1265300753      -18.3349704295  MEMB      166             0.0000000000
     19282       166  SAPS      C21            -7.1069144728      -36.3652844379      -17.7037990797  MEMB      166             0.0000000000
     19283       166  SAPS      O22            -6.1379417795      -37.1052948081      -17.5501001078  MEMB      166             0.0000000000
     19284       166  SAPS      C22            -8.5812887042      -36.8171398734      -17.7133090313  MEMB      166             0.0000000000
     19285       166  SAPS      H2R            -9.3227821170      -36.0011799722      -17.8501233709  MEMB      166             0.0000000000
     19286       166  SAPS      H2S            -8.7068437780      -37.3910991157      -18.6562448592  MEMB      166             0.0000000000
     19287       166  SAPS      C3             -5.1615777127      -33.8888803106      -17.3704928184  MEMB      166             0.0000000000
     19288       166  SAPS      HX             -4.1129100070      -33.6138014424      -17.6132859237  MEMB      166             0.0000000000
     19289       166  SAPS      HY             -5.1355137898      -34.7109034717      -16.6235526684  MEMB      166             0.0000000000
     19290       166  SAPS      O31            -6.0011738972      -32.7513365510      -16.9712168729  MEMB      166             0.0000000000
     19291       166  SAPS      C31            -6.0747287561      -32.6151184646      -15.6649550728  MEMB      166             0.0000000000
     19292       166  SAPS      O32            -5.3169930623      -33.2251545329      -14.9254834957  MEMB      166             0.0000000000
     19293       166  SAPS      C32            -7.1140097696      -31.6089103422      -15.3204854049  MEMB      166             0.0000000000
     19294       166  SAPS      H2X            -8.1325018172      -32.0512957518      -15.2845662854  MEMB      166             0.0000000000
     19295       166  SAPS      H2Y            -7.0049804248      -30.7629235349      -16.0323423774  MEMB      166             0.0000000000
     19296       166  SAPS      C23            -8.8677478289      -37.7069316756      -16.5290909376  MEMB      166             0.0000000000
     19297       166  SAPS      H3R            -8.4835488808      -38.7340372729      -16.7073213179  MEMB      166             0.0000000000
     19298       166  SAPS      H3S            -9.9595860189      -37.8151801027      -16.3544696742  MEMB      166             0.0000000000
     19299       166  SAPS      C24            -8.4192469056      -37.0691419501      -15.1254647601  MEMB      166             0.0000000000
     19300       166  SAPS      H4R            -7.5069094126      -36.4668655141      -15.3235162521  MEMB      166             0.0000000000
     19301       166  SAPS      H4S            -7.9415079572      -37.8532984749      -14.5000169346  MEMB      166             0.0000000000
     19302       166  SAPS      C25            -9.4346541366      -36.2157121736      -14.4672983920  MEMB      166             0.0000000000
     19303       166  SAPS      H5R            -9.5767908945      -35.1961383126      -14.8549401224  MEMB      166             0.0000000000
     19304       166  SAPS      C26           -10.2079570071      -36.7264935624      -13.4800947491  MEMB      166             0.0000000000
     19305       166  SAPS      H6R           -10.9085239213      -36.0303063493      -12.9958124081  MEMB      166             0.0000000000
     19306       166  SAPS      C27           -10.1342423882      -38.1543132006      -12.9183064232  MEMB      166             0.0000000000
     19307       166  SAPS      H7R            -9.6593696352      -38.8399817675      -13.6522515328  MEMB      166             0.0000000000
     19308       166  SAPS      H7S           -11.1675242168      -38.5444311524      -13.0385454939  MEMB      166             0.0000000000
     19309       166  SAPS      C28            -9.4848245768      -38.3219122538      -11.5811232044  MEMB      166             0.0000000000
     19310       166  SAPS      H8R            -8.5250040625      -38.8577981128      -11.5414797652  MEMB      166             0.0000000000
     19311       166  SAPS      C29            -9.9957323376      -37.8630128725      -10.4195994670  MEMB      166             0.0000000000
     19312       166  SAPS      H9R            -9.4143859911      -37.9430595534       -9.4892081087  MEMB      166             0.0000000000
     19313       166  SAPS      C210          -11.2976951284      -37.1341349476      -10.1247511131  MEMB      166             0.0000000000
     19314       166  SAPS      H10R          -11.7802240833      -37.5967137474       -9.2373346100  MEMB      166             0.0000000000
     19315       166  SAPS      H10S          -11.9843914000      -37.3081094794      -10.9806139892  MEMB      166             0.0000000000
     19316       166  SAPS      C211          -11.0888759340      -35.6565459436       -9.8779157974  MEMB      166             0.0000000000
     19317       166  SAPS      H11R          -10.5174023779      -35.1051883876      -10.6391141306  MEMB      166             0.0000000000
     19318       166  SAPS      C212          -11.4417742947      -34.9058646312       -8.8622556769  MEMB      166             0.0000000000
     19319       166  SAPS      H12R          -11.0810542881      -33.8738090532       -8.9836734060  MEMB      166             0.0000000000
     19320       166  SAPS      C213          -12.1394351046      -35.2358165654       -7.6009291560  MEMB      166             0.0000000000
     19321       166  SAPS      H13R          -12.8298176426      -36.0575370982       -7.8881021169  MEMB      166             0.0000000000
     19322       166  SAPS      H13S          -12.8445900511      -34.4059286973       -7.3810118229  MEMB      166             0.0000000000
     19323       166  SAPS      C214          -11.2822428772      -35.5836300450       -6.4760909656  MEMB      166             0.0000000000
     19324       166  SAPS      H14R          -11.5680851517      -36.4479352189       -5.8586196056  MEMB      166             0.0000000000
     19325       166  SAPS      C215          -10.6200703900      -34.6207159264       -5.8140135349  MEMB      166             0.0000000000
     19326       166  SAPS      H15R          -10.1484305788      -35.0012480976       -4.8959988016  MEMB      166             0.0000000000
     19327       166  SAPS      C216          -10.5718414607      -33.1115405493       -6.0769884726  MEMB      166             0.0000000000
     19328       166  SAPS      H16R          -11.2703887823      -32.7496015911       -6.8614334389  MEMB      166             0.0000000000
     19329       166  SAPS      H16S           -9.5187818605      -32.9478950140       -6.3910062363  MEMB      166             0.0000000000
     19330       166  SAPS      C217          -10.8437682883      -32.1828424378       -4.8728139131  MEMB      166             0.0000000000
     19331       166  SAPS      H17R          -11.8810906427      -32.4546935955       -4.5823304055  MEMB      166             0.0000000000
     19332       166  SAPS      H17S          -10.7619310531      -31.1131290914       -5.1614946838  MEMB      166             0.0000000000
     19333       166  SAPS      C218          -10.0070502294      -32.3624690378       -3.6047630323  MEMB      166             0.0000000000
     19334       166  SAPS      H18R          -10.0939143576      -33.3557626055       -3.1147188776  MEMB      166             0.0000000000
     19335       166  SAPS      H18S          -10.2605641002      -31.6471681564       -2.7933465706  MEMB      166             0.0000000000
     19336       166  SAPS      C219           -8.4580891387      -32.0880591341       -3.8602540041  MEMB      166             0.0000000000
     19337       166  SAPS      H19R           -8.4507703847      -31.1987767206       -4.5261704447  MEMB      166             0.0000000000
     19338       166  SAPS      H19S           -7.9380983342      -32.9019647780       -4.4093337886  MEMB      166             0.0000000000
     19339       166  SAPS      C220           -7.7116606020      -31.7959135232       -2.5556189640  MEMB      166             0.0000000000
     19340       166  SAPS      H20R           -8.2043156576      -30.9834758798       -1.9798092729  MEMB      166             0.0000000000
     19341       166  SAPS      H20S           -6.7726728648      -31.2738142625       -2.8385241881  MEMB      166             0.0000000000
     19342       166  SAPS      H20T           -7.5564626033      -32.7695564461       -2.0435105362  MEMB      166             0.0000000000
     19343       166  SAPS      C33            -6.8389188461      -30.9303216871      -13.9626961629  MEMB      166             0.0000000000
     19344       166  SAPS      H3X            -5.7394200035      -30.7762223725      -14.0036449429  MEMB      166             0.0000000000
     19345       166  SAPS      H3Y            -6.9839389503      -31.6199233775      -13.1037784197  MEMB      166             0.0000000000
     19346       166  SAPS      C34            -7.5993419912      -29.6522994418      -13.4991641599  MEMB      166             0.0000000000
     19347       166  SAPS      H4X            -8.6336694373      -29.8879770189      -13.8292300206  MEMB      166             0.0000000000
     19348       166  SAPS      H4Y            -7.3187301395      -28.7532048946      -14.0884065296  MEMB      166             0.0000000000
     19349       166  SAPS      C35            -7.6278276931      -29.4809428207      -11.9334473361  MEMB      166             0.0000000000
     19350       166  SAPS      H5X            -8.3533906016      -30.2413876362      -11.5734432785  MEMB      166             0.0000000000
     19351       166  SAPS      H5Y            -8.0186597403      -28.4733213357      -11.6760158113  MEMB      166             0.0000000000
     19352       166  SAPS      C36            -6.3154134221      -29.7524625549      -11.1903297566  MEMB      166             0.0000000000
     19353       166  SAPS      H6X            -5.5079208292      -29.0550592657      -11.5000150232  MEMB      166             0.0000000000
     19354       166  SAPS      H6Y            -5.8111113075      -30.7277362111      -11.3601567986  MEMB      166             0.0000000000
     19355       166  SAPS      C37            -6.4420816076      -29.7428657513       -9.5805398200  MEMB      166             0.0000000000
     19356       166  SAPS      H7X            -6.8393929572      -28.7392567695       -9.3174166940  MEMB      166             0.0000000000
     19357       166  SAPS      H7Y            -5.3856222635      -29.7278860406       -9.2370429824  MEMB      166             0.0000000000
     19358       166  SAPS      C38            -7.2141535570      -30.9086353011       -8.9372939134  MEMB      166             0.0000000000
     19359       166  SAPS      H8X            -8.3013671214      -30.8317892020       -9.1526600463  MEMB      166             0.0000000000
     19360       166  SAPS      H8Y            -7.1289214667      -30.7287881893       -7.8442652853  MEMB      166             0.0000000000
     19361       166  SAPS      C39            -6.7955449566      -32.3316660043       -9.2592517169  MEMB      166             0.0000000000
     19362       166  SAPS      H9X            -5.8081696361      -32.3661132660       -8.7510938521  MEMB      166             0.0000000000
     19363       166  SAPS      H9Y            -6.6724750206      -32.5021944486      -10.3501668652  MEMB      166             0.0000000000
     19364       166  SAPS      C310           -7.6573499588      -33.4504198070       -8.6012540094  MEMB      166             0.0000000000
     19365       166  SAPS      H10X           -8.7283921470      -33.1997559602       -8.7573219869  MEMB      166             0.0000000000
     19366       166  SAPS      H10Y           -7.6274618273      -33.5412536080       -7.4943763589  MEMB      166             0.0000000000
     19367       166  SAPS      C311           -7.3781864391      -34.8776092782       -9.3114496651  MEMB      166             0.0000000000
     19368       166  SAPS      H11X           -7.4301573156      -34.7612826421      -10.4151201032  MEMB      166             0.0000000000
     19369       166  SAPS      H11Y           -8.2102210164      -35.5292426415       -8.9687925923  MEMB      166             0.0000000000
     19370       166  SAPS      C312           -5.9933559268      -35.5976393937       -9.0540682330  MEMB      166             0.0000000000
     19371       166  SAPS      H12X           -5.1839248598      -34.8811388454       -9.3105235762  MEMB      166             0.0000000000
     19372       166  SAPS      H12Y           -5.8639279731      -36.4681751659       -9.7321068510  MEMB      166             0.0000000000
     19373       166  SAPS      C313           -5.8538379172      -36.2262911693       -7.7254180866  MEMB      166             0.0000000000
     19374       166  SAPS      H13X           -5.8262169089      -35.4617259449       -6.9198146299  MEMB      166             0.0000000000
     19375       166  SAPS      H13Y           -4.8490941045      -36.6959418418       -7.6603110522  MEMB      166             0.0000000000
     19376       166  SAPS      C314           -6.8708317341      -37.3216668014       -7.3044192744  MEMB      166             0.0000000000
     19377       166  SAPS      H14X           -6.8031584537      -38.1790684997       -8.0076995146  MEMB      166             0.0000000000
     19378       166  SAPS      H14Y           -7.8882208068      -36.8769728738       -7.2658490673  MEMB      166             0.0000000000
     19379       166  SAPS      C315           -6.6766163128      -37.9529463377       -5.8867038123  MEMB      166             0.0000000000
     19380       166  SAPS      H15X           -7.5146466185      -38.6556175211       -5.6910528673  MEMB      166             0.0000000000
     19381       166  SAPS      H15Y           -6.7185533212      -37.1542384953       -5.1155830426  MEMB      166             0.0000000000
     19382       166  SAPS      C316           -5.3156678753      -38.6725044684       -5.7557821080  MEMB      166             0.0000000000
     19383       166  SAPS      H16X           -4.4964229456      -37.9222676021       -5.7731986441  MEMB      166             0.0000000000
     19384       166  SAPS      H16Y           -5.3115183852      -39.3740874628       -6.6172256729  MEMB      166             0.0000000000
     19385       166  SAPS      C317           -5.1957532665      -39.4003020369       -4.4072946097  MEMB      166             0.0000000000
     19386       166  SAPS      H17X           -5.9458717454      -40.2181630182       -4.3548870865  MEMB      166             0.0000000000
     19387       166  SAPS      H17Y           -5.3937719588      -38.6366117213       -3.6250619986  MEMB      166             0.0000000000
     19388       166  SAPS      C318           -3.7793493266      -40.0590638728       -4.1544379716  MEMB      166             0.0000000000
     19389       166  SAPS      H18X           -2.9637788488      -39.4279189175       -4.5677428923  MEMB      166             0.0000000000
     19390       166  SAPS      H18Y           -3.7515898724      -41.1234624526       -4.4716233003  MEMB      166             0.0000000000
     19391       166  SAPS      H18Z           -3.6543129314      -40.0532551228       -3.0505107782  MEMB      166             0.0000000000
     19392       167  OSM       N              30.8775784117      -18.4245185217      -21.6189041468  MEMB      167             0.0000000000
     19393       167  OSM       C15            32.1632324388      -18.7753891412      -20.9657885232  MEMB      167             0.0000000000
     19394       167  OSM       H15A           32.8434248391      -18.9133805949      -21.7932525884  MEMB      167             0.0000000000
     19395       167  OSM       H15B           32.0636086204      -19.7564962455      -20.5254433717  MEMB      167             0.0000000000
     19396       167  OSM       H15C           32.4945531115      -17.9817658550      -20.3124978747  MEMB      167             0.0000000000
     19397       167  OSM       C14            30.3835600679      -19.5776380425      -22.5133563576  MEMB      167             0.0000000000
     19398       167  OSM       H14A           31.1809674349      -19.9637225868      -23.1309973027  MEMB      167             0.0000000000
     19399       167  OSM       H14B           29.5353067119      -19.2063320625      -23.0692323086  MEMB      167             0.0000000000
     19400       167  OSM       H14C           30.0058252825      -20.3768453911      -21.8928855814  MEMB      167             0.0000000000
     19401       167  OSM       C13            29.7981640544      -18.2048655258      -20.5696885234  MEMB      167             0.0000000000
     19402       167  OSM       H13A           28.7998287425      -18.2611984166      -20.9777980378  MEMB      167             0.0000000000
     19403       167  OSM       H13B           30.0188955102      -17.2862104736      -20.0464770479  MEMB      167             0.0000000000
     19404       167  OSM       H13C           29.8957390657      -19.0892011977      -19.9574553562  MEMB      167             0.0000000000
     19405       167  OSM       C12            31.0803545442      -17.2209006874      -22.5525878935  MEMB      167             0.0000000000
     19406       167  OSM       H12A           30.0796008608      -17.1233437984      -22.9467637968  MEMB      167             0.0000000000
     19407       167  OSM       H12B           31.6457597318      -17.4081255974      -23.4535116372  MEMB      167             0.0000000000
     19408       167  OSM       C11            31.5332821863      -15.8764813100      -22.0440955090  MEMB      167             0.0000000000
     19409       167  OSM       H11A           31.4198905631      -15.1849385771      -22.9062045016  MEMB      167             0.0000000000
     19410       167  OSM       H11B           32.6174456242      -15.9452563502      -21.8113284394  MEMB      167             0.0000000000
     19411       167  OSM       P              30.8727455592      -13.9887154850      -20.1951708644  MEMB      167             0.0000000000
     19412       167  OSM       O13            31.9333710199      -13.1787105407      -20.7875239927  MEMB      167             0.0000000000
     19413       167  OSM       O14            29.4933647319      -13.4098195499      -20.1710184820  MEMB      167             0.0000000000
     19414       167  OSM       O11            31.1999805226      -14.3006395494      -18.6692437763  MEMB      167             0.0000000000
     19415       167  OSM       O12            30.7934652916      -15.3775025267      -20.9126219259  MEMB      167             0.0000000000
     19416       167  OSM       C1S            31.1739263496      -15.6251133966      -18.1880390073  MEMB      167             0.0000000000
     19417       167  OSM       H1S            31.9154721112      -16.3119645539      -18.6491968776  MEMB      167             0.0000000000
     19418       167  OSM       H1T            30.2213907181      -16.1279176586      -18.4604077606  MEMB      167             0.0000000000
     19419       167  OSM       NF             31.6294730692      -16.9310048026      -16.1808253063  MEMB      167             0.0000000000
     19420       167  OSM       HNF            30.7685694562      -17.2437713502      -15.7870856832  MEMB      167             0.0000000000
     19421       167  OSM       C2S            31.3523648649      -15.5921277760      -16.6441098249  MEMB      167             0.0000000000
     19422       167  OSM       H2S            32.1994417058      -14.9322496086      -16.3589037957  MEMB      167             0.0000000000
     19423       167  OSM       C3S            30.1550507853      -14.9942610975      -16.0110525654  MEMB      167             0.0000000000
     19424       167  OSM       H3S            29.2626846695      -15.4842408482      -16.4559383030  MEMB      167             0.0000000000
     19425       167  OSM       O3             30.0959641880      -13.6137513339      -16.2967652210  MEMB      167             0.0000000000
     19426       167  OSM       HO3            30.7863672586      -13.3977495903      -16.9278652731  MEMB      167             0.0000000000
     19427       167  OSM       C4S            30.2301928690      -15.0864285989      -14.5175411106  MEMB      167             0.0000000000
     19428       167  OSM       H4S            31.1812672397      -14.8800581474      -14.0048342351  MEMB      167             0.0000000000
     19429       167  OSM       C5S            29.1054629632      -15.3400763634      -13.8066737169  MEMB      167             0.0000000000
     19430       167  OSM       H5S            28.2219555219      -15.6320785886      -14.3933158798  MEMB      167             0.0000000000
     19431       167  OSM       C6S            29.0437767180      -15.4531061801      -12.2774449803  MEMB      167             0.0000000000
     19432       167  OSM       H6S            29.6335378242      -16.3459975666      -11.9787011828  MEMB      167             0.0000000000
     19433       167  OSM       H6T            28.0114518483      -15.7426838676      -11.9862895533  MEMB      167             0.0000000000
     19434       167  OSM       C7S            29.2516264636      -14.1654105786      -11.5540352854  MEMB      167             0.0000000000
     19435       167  OSM       H7S            28.6512448482      -13.3455839994      -12.0031975350  MEMB      167             0.0000000000
     19436       167  OSM       H7T            30.3129244581      -13.8522393794      -11.6534894284  MEMB      167             0.0000000000
     19437       167  OSM       C8S            28.9409918147      -14.2896192172      -10.0820844899  MEMB      167             0.0000000000
     19438       167  OSM       H8S            29.5658041202      -15.1139112767       -9.6765315118  MEMB      167             0.0000000000
     19439       167  OSM       H8T            27.9149754592      -14.6899186067       -9.9358933411  MEMB      167             0.0000000000
     19440       167  OSM       C9S            29.0959066209      -13.0526896801       -9.2163995371  MEMB      167             0.0000000000
     19441       167  OSM       H9S            28.7749804344      -12.0564063016       -9.5888872677  MEMB      167             0.0000000000
     19442       167  OSM       H9T            30.1943029162      -13.0622180736       -9.0497995948  MEMB      167             0.0000000000
     19443       167  OSM       C10S           28.4937656908      -13.2417250110       -7.8440000045  MEMB      167             0.0000000000
     19444       167  OSM       H10S           27.5435003919      -13.8110804603       -7.9285638439  MEMB      167             0.0000000000
     19445       167  OSM       H10T           28.3267389641      -12.2171172224       -7.4482705831  MEMB      167             0.0000000000
     19446       167  OSM       C11S           29.2950454019      -13.9480759976       -6.7484993643  MEMB      167             0.0000000000
     19447       167  OSM       H11S           30.3757485943      -13.7046584507       -6.6639450505  MEMB      167             0.0000000000
     19448       167  OSM       H11T           29.3179390875      -15.0227012023       -7.0295292164  MEMB      167             0.0000000000
     19449       167  OSM       C12S           28.5409879785      -13.8317554384       -5.4085586893  MEMB      167             0.0000000000
     19450       167  OSM       H12S           27.4546937065      -14.0058682858       -5.5633828259  MEMB      167             0.0000000000
     19451       167  OSM       H12T           28.6749001224      -12.7855294821       -5.0595604142  MEMB      167             0.0000000000
     19452       167  OSM       C13S           28.9369347178      -14.8914338421       -4.3128820669  MEMB      167             0.0000000000
     19453       167  OSM       H13S           28.2946222679      -14.6320301370       -3.4442817273  MEMB      167             0.0000000000
     19454       167  OSM       H13T           30.0035366801      -14.7658634280       -4.0284292221  MEMB      167             0.0000000000
     19455       167  OSM       C14S           28.6507720311      -16.3902357192       -4.4882418104  MEMB      167             0.0000000000
     19456       167  OSM       H14S           29.1928069915      -16.8409436519       -5.3469513597  MEMB      167             0.0000000000
     19457       167  OSM       H14T           27.5890514625      -16.3716157565       -4.8149286066  MEMB      167             0.0000000000
     19458       167  OSM       C15S           28.7592016466      -17.4345875970       -3.3381468767  MEMB      167             0.0000000000
     19459       167  OSM       H15S           29.7408761966      -17.9314324181       -3.4923585815  MEMB      167             0.0000000000
     19460       167  OSM       H15T           28.0795783442      -18.2859317061       -3.5564271257  MEMB      167             0.0000000000
     19461       167  OSM       C16S           28.5860741171      -16.9342863051       -1.9133496350  MEMB      167             0.0000000000
     19462       167  OSM       H16S           28.1086953764      -17.7986525570       -1.4041310837  MEMB      167             0.0000000000
     19463       167  OSM       H16T           27.8226366935      -16.1319924728       -2.0017153246  MEMB      167             0.0000000000
     19464       167  OSM       C17S           29.8428626978      -16.5959584628       -1.2049213195  MEMB      167             0.0000000000
     19465       167  OSM       H17S           30.2107265045      -15.7191461074       -1.7795487111  MEMB      167             0.0000000000
     19466       167  OSM       H17T           30.5302792916      -17.4678109021       -1.2455761138  MEMB      167             0.0000000000
     19467       167  OSM       C18S           29.7673381809      -16.2140461481        0.2132320177  MEMB      167             0.0000000000
     19468       167  OSM       H18S           30.6798576780      -16.3936435709        0.8209938806  MEMB      167             0.0000000000
     19469       167  OSM       H18T           29.0922532741      -16.8926410629        0.7772260048  MEMB      167             0.0000000000
     19470       167  OSM       H18U           29.3809178538      -15.1725024340        0.2269144806  MEMB      167             0.0000000000
     19471       167  OSM       C1F            32.6755580348      -17.6750325178      -16.4500982925  MEMB      167             0.0000000000
     19472       167  OSM       OF             33.5340359495      -17.3860001144      -17.2380767362  MEMB      167             0.0000000000
     19473       167  OSM       C2F            32.5852479383      -18.9530111801      -15.6601518358  MEMB      167             0.0000000000
     19474       167  OSM       H2F            32.4667556536      -19.7438467209      -16.4314231807  MEMB      167             0.0000000000
     19475       167  OSM       H2G            31.6940779710      -19.0128708714      -14.9994294499  MEMB      167             0.0000000000
     19476       167  OSM       C3F            33.8441232213      -19.0737790440      -14.7939486671  MEMB      167             0.0000000000
     19477       167  OSM       H3F            34.7911749260      -18.8284427370      -15.3204699148  MEMB      167             0.0000000000
     19478       167  OSM       H3G            33.8822714835      -20.1564623687      -14.5476504684  MEMB      167             0.0000000000
     19479       167  OSM       C4F            33.8523536315      -18.1071876075      -13.6152340839  MEMB      167             0.0000000000
     19480       167  OSM       H4F            33.6792742130      -17.0448876828      -13.8907031134  MEMB      167             0.0000000000
     19481       167  OSM       H4G            34.8638218473      -18.0343459802      -13.1614202778  MEMB      167             0.0000000000
     19482       167  OSM       C5F            32.9008552007      -18.6056632138      -12.5320203884  MEMB      167             0.0000000000
     19483       167  OSM       H5F            32.9536366106      -19.7060568161      -12.3882533897  MEMB      167             0.0000000000
     19484       167  OSM       H5G            31.8477921801      -18.3868192793      -12.8103841439  MEMB      167             0.0000000000
     19485       167  OSM       C6F            33.1059015127      -17.8530897262      -11.1916029378  MEMB      167             0.0000000000
     19486       167  OSM       H6F            32.8230448159      -16.7787234334      -11.1845239557  MEMB      167             0.0000000000
     19487       167  OSM       H6G            34.1523593853      -18.0789603484      -10.8945686816  MEMB      167             0.0000000000
     19488       167  OSM       C7F            32.1529397098      -18.4048436410      -10.0910428565  MEMB      167             0.0000000000
     19489       167  OSM       H7F            32.4817696348      -19.4658598522      -10.0701537631  MEMB      167             0.0000000000
     19490       167  OSM       H7G            31.0926434813      -18.5485160860      -10.3901265286  MEMB      167             0.0000000000
     19491       167  OSM       C8F            32.1981732997      -17.6014578975       -8.8015946930  MEMB      167             0.0000000000
     19492       167  OSM       H8F            31.7841509909      -16.5838148310       -8.9668488282  MEMB      167             0.0000000000
     19493       167  OSM       H8G            33.2485949973      -17.3509993260       -8.5404320841  MEMB      167             0.0000000000
     19494       167  OSM       C9F            31.4941646365      -18.1395680574       -7.6090010644  MEMB      167             0.0000000000
     19495       167  OSM       H9F            30.5008226426      -18.5605232960       -7.8236364671  MEMB      167             0.0000000000
     19496       167  OSM       C10F           31.9200867706      -18.2245997578       -6.3143116153  MEMB      167             0.0000000000
     19497       167  OSM       H10F           31.1526484798      -18.6844458178       -5.6743272182  MEMB      167             0.0000000000
     19498       167  OSM       C11F           33.2837830022      -17.7229350159       -5.8231129417  MEMB      167             0.0000000000
     19499       167  OSM       H11F           33.8761730624      -17.3144685949       -6.6696063952  MEMB      167             0.0000000000
     19500       167  OSM       H11G           33.9473775173      -18.5781995294       -5.5731418479  MEMB      167             0.0000000000
     19501       167  OSM       C12F           33.2659378651      -16.6878960052       -4.6873067781  MEMB      167             0.0000000000
     19502       167  OSM       H12F           32.5023714531      -15.9002671713       -4.8631712109  MEMB      167             0.0000000000
     19503       167  OSM       H12G           34.1662872481      -16.0721743462       -4.4761705920  MEMB      167             0.0000000000
     19504       167  OSM       C13F           32.7903544481      -17.4281577900       -3.3964533442  MEMB      167             0.0000000000
     19505       167  OSM       H13F           31.7083421707      -17.6737621645       -3.4534522902  MEMB      167             0.0000000000
     19506       167  OSM       H13G           32.7388852066      -16.6963730027       -2.5620884961  MEMB      167             0.0000000000
     19507       167  OSM       C14F           33.6885142675      -18.5105619185       -2.9134341416  MEMB      167             0.0000000000
     19508       167  OSM       H14F           34.7852515815      -18.3731986828       -3.0257709412  MEMB      167             0.0000000000
     19509       167  OSM       H14G           33.4792713467      -19.4211034736       -3.5146437640  MEMB      167             0.0000000000
     19510       167  OSM       C15F           33.4897362606      -19.0003704119       -1.5172713074  MEMB      167             0.0000000000
     19511       167  OSM       H15F           34.1224769297      -19.9119648301       -1.4629081266  MEMB      167             0.0000000000
     19512       167  OSM       H15G           32.4178994854      -19.2344168389       -1.3420320106  MEMB      167             0.0000000000
     19513       167  OSM       C16F           33.8722863552      -18.0272343824       -0.2814198408  MEMB      167             0.0000000000
     19514       167  OSM       H16F           33.6160101680      -16.9650821843       -0.4826084822  MEMB      167             0.0000000000
     19515       167  OSM       H16G           34.9821759839      -17.9923308804       -0.3167361200  MEMB      167             0.0000000000
     19516       167  OSM       C17F           33.2257937232      -18.4934112218        0.9862904024  MEMB      167             0.0000000000
     19517       167  OSM       H17F           32.1532060711      -18.7223340315        0.8088895038  MEMB      167             0.0000000000
     19518       167  OSM       H17G           33.3302274575      -17.6714128872        1.7263806338  MEMB      167             0.0000000000
     19519       167  OSM       C18F           33.7265104122      -19.8788996947        1.6072213236  MEMB      167             0.0000000000
     19520       167  OSM       H18F           34.8115523386      -19.7909478139        1.8291883217  MEMB      167             0.0000000000
     19521       167  OSM       H18G           33.4795449252      -20.6461709085        0.8426138479  MEMB      167             0.0000000000
     19522       167  OSM       H18H           33.1361206218      -20.2206483552        2.4841299487  MEMB      167             0.0000000000
     19523       168  SAPS      N              -2.1613980076      -35.9510525639      -20.7911447393  MEMB      168             0.0000000000
     19524       168  SAPS      HN1            -2.5686832621      -36.3869782421      -21.6430177455  MEMB      168             0.0000000000
     19525       168  SAPS      HN2            -1.9018915307      -36.7726737792      -20.2087402893  MEMB      168             0.0000000000
     19526       168  SAPS      HN3            -2.8211567474      -35.3249363575      -20.2868661238  MEMB      168             0.0000000000
     19527       168  SAPS      C12            -1.0360056853      -35.1231038496      -21.1794783557  MEMB      168             0.0000000000
     19528       168  SAPS      H12A           -0.2828261845      -35.7354118126      -21.6529756488  MEMB      168             0.0000000000
     19529       168  SAPS      C13            -1.4406375413      -33.9363070922      -22.0907956640  MEMB      168             0.0000000000
     19530       168  SAPS      O13A           -2.6558020156      -33.7712246052      -22.3484527941  MEMB      168             0.0000000000
     19531       168  SAPS      O13B           -0.4761653832      -33.2599235058      -22.5245369328  MEMB      168             0.0000000000
     19532       168  SAPS      C11            -0.2713040772      -34.4830312088      -19.9480797310  MEMB      168             0.0000000000
     19533       168  SAPS      H11A           -0.9270030476      -33.7603756326      -19.4169029916  MEMB      168             0.0000000000
     19534       168  SAPS      H11B            0.6176139935      -33.8545756881      -20.1698664539  MEMB      168             0.0000000000
     19535       168  SAPS      P               1.4764061254      -35.6962805475      -18.2314152922  MEMB      168             0.0000000000
     19536       168  SAPS      O13             1.5826952605      -37.0558960831      -17.6474739493  MEMB      168             0.0000000000
     19537       168  SAPS      O14             2.6409722388      -35.3224632845      -18.9692043352  MEMB      168             0.0000000000
     19538       168  SAPS      O12             0.2121871477      -35.5913019666      -19.1888899795  MEMB      168             0.0000000000
     19539       168  SAPS      O11             1.1586535965      -34.6635230083      -17.0805282275  MEMB      168             0.0000000000
     19540       168  SAPS      C1              1.8819323277      -33.3986087268      -16.9927767035  MEMB      168             0.0000000000
     19541       168  SAPS      HA              2.9126295110      -33.5136669508      -17.3912061317  MEMB      168             0.0000000000
     19542       168  SAPS      HB              1.4026170241      -32.7576863590      -17.7633585188  MEMB      168             0.0000000000
     19543       168  SAPS      C2              1.8655964366      -32.8507472110      -15.5494278561  MEMB      168             0.0000000000
     19544       168  SAPS      HS              2.2551044170      -31.8112657276      -15.5037916584  MEMB      168             0.0000000000
     19545       168  SAPS      O21             2.5518052405      -33.5937028304      -14.5776248039  MEMB      168             0.0000000000
     19546       168  SAPS      C21             3.8325275039      -33.6957146563      -14.8251450142  MEMB      168             0.0000000000
     19547       168  SAPS      O22             4.5155508943      -33.1188858858      -15.6791226326  MEMB      168             0.0000000000
     19548       168  SAPS      C22             4.4507499090      -34.7175584923      -13.8563745989  MEMB      168             0.0000000000
     19549       168  SAPS      H2R             4.2881931647      -35.7498884876      -14.2334565677  MEMB      168             0.0000000000
     19550       168  SAPS      H2S             5.5550143978      -34.5985321690      -13.8838302429  MEMB      168             0.0000000000
     19551       168  SAPS      C3              0.3502090287      -32.6896521683      -15.0425445743  MEMB      168             0.0000000000
     19552       168  SAPS      HX             -0.1206883545      -32.0924685879      -15.8524509799  MEMB      168             0.0000000000
     19553       168  SAPS      HY              0.3523235155      -32.0142713514      -14.1604010287  MEMB      168             0.0000000000
     19554       168  SAPS      O31            -0.3461399084      -33.9107980080      -14.7371821403  MEMB      168             0.0000000000
     19555       168  SAPS      C31            -1.1600436475      -33.9418202339      -13.7027154071  MEMB      168             0.0000000000
     19556       168  SAPS      O32            -1.6162913987      -33.0866836945      -13.0454179746  MEMB      168             0.0000000000
     19557       168  SAPS      C32            -1.8310791715      -35.3468715670      -13.6841211892  MEMB      168             0.0000000000
     19558       168  SAPS      H2X            -2.2671690302      -35.6947565122      -14.6449141521  MEMB      168             0.0000000000
     19559       168  SAPS      H2Y            -2.5486344160      -35.2463180243      -12.8419072536  MEMB      168             0.0000000000
     19560       168  SAPS      C23             4.0743758244      -34.5453028740      -12.3361663637  MEMB      168             0.0000000000
     19561       168  SAPS      H3R             4.3335361530      -35.4675450061      -11.7734704839  MEMB      168             0.0000000000
     19562       168  SAPS      H3S             2.9714537962      -34.6210876698      -12.2259811947  MEMB      168             0.0000000000
     19563       168  SAPS      C24             4.6376829335      -33.2455237840      -11.7570291301  MEMB      168             0.0000000000
     19564       168  SAPS      H4R             4.1543856559      -32.4764548165      -12.3967768749  MEMB      168             0.0000000000
     19565       168  SAPS      H4S             5.7117486120      -33.0813702798      -11.9888867180  MEMB      168             0.0000000000
     19566       168  SAPS      C25             4.5618723026      -33.0169861855      -10.2981995614  MEMB      168             0.0000000000
     19567       168  SAPS      H5R             5.0072301826      -33.7974476251       -9.6637421782  MEMB      168             0.0000000000
     19568       168  SAPS      C26             3.8497216289      -31.9807604474       -9.8493611537  MEMB      168             0.0000000000
     19569       168  SAPS      H6R             3.7567785766      -31.9485893168       -8.7537669453  MEMB      168             0.0000000000
     19570       168  SAPS      C27             3.0647389509      -30.9094986234      -10.5416687578  MEMB      168             0.0000000000
     19571       168  SAPS      H7R             3.5590819512      -30.5204250595      -11.4574020445  MEMB      168             0.0000000000
     19572       168  SAPS      H7S             3.1594058195      -29.9789685571       -9.9421078059  MEMB      168             0.0000000000
     19573       168  SAPS      C28             1.5986594403      -31.3223378681      -10.8371957947  MEMB      168             0.0000000000
     19574       168  SAPS      H8R             1.3884128894      -31.5282946676      -11.8970911992  MEMB      168             0.0000000000
     19575       168  SAPS      C29             0.5470771715      -31.3657354051       -9.9691584735  MEMB      168             0.0000000000
     19576       168  SAPS      H9R            -0.4070719205      -31.5560476300      -10.4823645385  MEMB      168             0.0000000000
     19577       168  SAPS      C210            0.6718048703      -31.0555472361       -8.4688571566  MEMB      168             0.0000000000
     19578       168  SAPS      H10R            1.6913662162      -30.6681801905       -8.2572867268  MEMB      168             0.0000000000
     19579       168  SAPS      H10S            0.6168155860      -32.0265907734       -7.9318547735  MEMB      168             0.0000000000
     19580       168  SAPS      C211           -0.4468288255      -30.1492565672       -8.0364594199  MEMB      168             0.0000000000
     19581       168  SAPS      H11R           -0.1844208640      -29.0879279014       -8.1577991402  MEMB      168             0.0000000000
     19582       168  SAPS      C212           -1.6654782071      -30.5498236054       -7.6802631336  MEMB      168             0.0000000000
     19583       168  SAPS      H12R           -2.2863047021      -29.7415518065       -7.2664148539  MEMB      168             0.0000000000
     19584       168  SAPS      C213           -2.1891224964      -31.9142142470       -7.5860565399  MEMB      168             0.0000000000
     19585       168  SAPS      H13R           -1.3397777113      -32.6283113907       -7.6408274267  MEMB      168             0.0000000000
     19586       168  SAPS      H13S           -2.8613360751      -32.2282822978       -8.4129853171  MEMB      168             0.0000000000
     19587       168  SAPS      C214           -2.9576596075      -32.0721029616       -6.3024802575  MEMB      168             0.0000000000
     19588       168  SAPS      H14R           -4.0506342624      -32.0644452623       -6.4263687405  MEMB      168             0.0000000000
     19589       168  SAPS      C215           -2.4014230532      -32.2911951464       -5.0531097283  MEMB      168             0.0000000000
     19590       168  SAPS      H15R           -3.0635539730      -32.2874609840       -4.1747196268  MEMB      168             0.0000000000
     19591       168  SAPS      C216           -0.9756370269      -32.4275813530       -4.6493850966  MEMB      168             0.0000000000
     19592       168  SAPS      H16R           -0.8457819688      -32.1446053896       -3.5829023757  MEMB      168             0.0000000000
     19593       168  SAPS      H16S           -0.3917225438      -31.6617526350       -5.2033445284  MEMB      168             0.0000000000
     19594       168  SAPS      C217           -0.3659437065      -33.8502903585       -4.9296631303  MEMB      168             0.0000000000
     19595       168  SAPS      H17R            0.7232094165      -33.7676227862       -4.7266050242  MEMB      168             0.0000000000
     19596       168  SAPS      H17S           -0.4602113115      -34.0702529514       -6.0145826430  MEMB      168             0.0000000000
     19597       168  SAPS      C218           -0.9706798217      -35.0284698840       -4.0479154168  MEMB      168             0.0000000000
     19598       168  SAPS      H18R           -0.3272979556      -35.8381025646       -4.4539646511  MEMB      168             0.0000000000
     19599       168  SAPS      H18S           -2.0346182180      -35.1187470424       -4.3548463078  MEMB      168             0.0000000000
     19600       168  SAPS      C219           -0.7386537539      -34.7727096509       -2.5142466701  MEMB      168             0.0000000000
     19601       168  SAPS      H19R           -1.4761720921      -34.1349215673       -1.9816917441  MEMB      168             0.0000000000
     19602       168  SAPS      H19S            0.2361565096      -34.2429077950       -2.4561435316  MEMB      168             0.0000000000
     19603       168  SAPS      C220           -0.6872014151      -36.1063715756       -1.8186650275  MEMB      168             0.0000000000
     19604       168  SAPS      H20R           -0.1718290891      -35.9729972460       -0.8435114606  MEMB      168             0.0000000000
     19605       168  SAPS      H20S           -0.0186277437      -36.8047459203       -2.3660261250  MEMB      168             0.0000000000
     19606       168  SAPS      H20T           -1.6808216173      -36.5454997770       -1.5858424893  MEMB      168             0.0000000000
     19607       168  SAPS      C33            -0.8577867502      -36.4545503272      -13.3449013808  MEMB      168             0.0000000000
     19608       168  SAPS      H3X            -0.0629156733      -36.4591147947      -14.1210973022  MEMB      168             0.0000000000
     19609       168  SAPS      H3Y            -1.4611062612      -37.3843992499      -13.4204511717  MEMB      168             0.0000000000
     19610       168  SAPS      C34            -0.0345533002      -36.3503783143      -12.0735356152  MEMB      168             0.0000000000
     19611       168  SAPS      H4X             0.5517655301      -35.4142472013      -12.1927401959  MEMB      168             0.0000000000
     19612       168  SAPS      H4Y             0.6642716982      -37.2087636118      -11.9779363399  MEMB      168             0.0000000000
     19613       168  SAPS      C35            -0.7672246173      -36.2634278847      -10.7419557981  MEMB      168             0.0000000000
     19614       168  SAPS      H5X            -1.4640759850      -37.1263969339      -10.6786813891  MEMB      168             0.0000000000
     19615       168  SAPS      H5Y            -1.3124274928      -35.2987250678      -10.6618111625  MEMB      168             0.0000000000
     19616       168  SAPS      C36             0.2991132005      -36.3051872910       -9.6000303776  MEMB      168             0.0000000000
     19617       168  SAPS      H6X             0.7703366813      -35.3029314639       -9.6880801519  MEMB      168             0.0000000000
     19618       168  SAPS      H6Y             1.0173444711      -37.0784553262       -9.9471928486  MEMB      168             0.0000000000
     19619       168  SAPS      C37            -0.1988686598      -36.5992589344       -8.1937692889  MEMB      168             0.0000000000
     19620       168  SAPS      H7X            -0.6441137314      -37.5858836110       -7.9434706776  MEMB      168             0.0000000000
     19621       168  SAPS      H7Y            -0.7655218674      -35.7213850968       -7.8161951186  MEMB      168             0.0000000000
     19622       168  SAPS      C38             1.0157273014      -36.6032683668       -7.2297083294  MEMB      168             0.0000000000
     19623       168  SAPS      H8X             1.4729939725      -37.6147210519       -7.2765223468  MEMB      168             0.0000000000
     19624       168  SAPS      H8Y             0.4793443145      -36.5186243175       -6.2604556064  MEMB      168             0.0000000000
     19625       168  SAPS      C39             2.1314800422      -35.7112243311       -7.5455791731  MEMB      168             0.0000000000
     19626       168  SAPS      H9X             1.7163726897      -34.7757225667       -7.9778329530  MEMB      168             0.0000000000
     19627       168  SAPS      H9Y             2.7888873171      -36.1866522082       -8.3045945260  MEMB      168             0.0000000000
     19628       168  SAPS      C310            3.0560492316      -35.2327320961       -6.3419755017  MEMB      168             0.0000000000
     19629       168  SAPS      H10X            4.0109278350      -35.8005402396       -6.3529991110  MEMB      168             0.0000000000
     19630       168  SAPS      H10Y            2.6411417370      -35.3749820740       -5.3212217731  MEMB      168             0.0000000000
     19631       168  SAPS      C311            3.4234719637      -33.7754415989       -6.6749126719  MEMB      168             0.0000000000
     19632       168  SAPS      H11X            2.4644979069      -33.2222790964       -6.7681916237  MEMB      168             0.0000000000
     19633       168  SAPS      H11Y            3.9772755385      -33.8031588871       -7.6376456620  MEMB      168             0.0000000000
     19634       168  SAPS      C312            4.2939022730      -33.0275732055       -5.6171317119  MEMB      168             0.0000000000
     19635       168  SAPS      H12X            4.3623062979      -31.9928716086       -6.0159232803  MEMB      168             0.0000000000
     19636       168  SAPS      H12Y            5.2980690814      -33.4944811783       -5.5278751754  MEMB      168             0.0000000000
     19637       168  SAPS      C313            3.7777094844      -33.0254240286       -4.1254921091  MEMB      168             0.0000000000
     19638       168  SAPS      H13X            3.6902930093      -34.0394772181       -3.6800970600  MEMB      168             0.0000000000
     19639       168  SAPS      H13Y            2.7491792416      -32.6054515060       -4.1171552053  MEMB      168             0.0000000000
     19640       168  SAPS      C314            4.6274099279      -32.0836200025       -3.1648984607  MEMB      168             0.0000000000
     19641       168  SAPS      H14X            4.7505961950      -31.0914046375       -3.6493107044  MEMB      168             0.0000000000
     19642       168  SAPS      H14Y            5.6135503970      -32.5622186572       -2.9838118178  MEMB      168             0.0000000000
     19643       168  SAPS      C315            3.8974189810      -31.8511883533       -1.8503578372  MEMB      168             0.0000000000
     19644       168  SAPS      H15X            4.3642432103      -31.1872324948       -1.0917015953  MEMB      168             0.0000000000
     19645       168  SAPS      H15Y            3.8718693880      -32.8668887128       -1.4008910236  MEMB      168             0.0000000000
     19646       168  SAPS      C316            2.4163404736      -31.4194744115       -1.9868269789  MEMB      168             0.0000000000
     19647       168  SAPS      H16X            1.7204104838      -32.1825172050       -2.3964216160  MEMB      168             0.0000000000
     19648       168  SAPS      H16Y            2.2880578143      -30.4720519955       -2.5527389314  MEMB      168             0.0000000000
     19649       168  SAPS      C317            1.8344377451      -31.0110699908       -0.5354417304  MEMB      168             0.0000000000
     19650       168  SAPS      H17X            2.5645472154      -30.3416628917       -0.0322965291  MEMB      168             0.0000000000
     19651       168  SAPS      H17Y            1.8703799912      -31.8422632473        0.2008640246  MEMB      168             0.0000000000
     19652       168  SAPS      C318            0.4470317802      -30.3016930258       -0.6632694070  MEMB      168             0.0000000000
     19653       168  SAPS      H18X            0.6337369500      -29.3476967806       -1.2011851015  MEMB      168             0.0000000000
     19654       168  SAPS      H18Y            0.0748304200      -30.1300459763        0.3693607002  MEMB      168             0.0000000000
     19655       168  SAPS      H18Z           -0.3502268252      -30.8716654181       -1.1865583576  MEMB      168             0.0000000000
     19656       169  SAPE      N             -16.0216707389      -29.2392201930      -22.1833472420  MEMB      169             0.0000000000
     19657       169  SAPE      HN1           -15.2882013843      -28.5255530320      -22.3685544719  MEMB      169             0.0000000000
     19658       169  SAPE      HN2           -16.6552862438      -29.2898144100      -23.0064947005  MEMB      169             0.0000000000
     19659       169  SAPE      HN3           -16.5606055769      -28.8988406658      -21.3615863042  MEMB      169             0.0000000000
     19660       169  SAPE      C12           -15.2914667731      -30.5691154347      -21.9384694729  MEMB      169             0.0000000000
     19661       169  SAPE      H12A          -14.5521702275      -30.1869663299      -21.2024506552  MEMB      169             0.0000000000
     19662       169  SAPE      H12B          -14.8383748364      -30.8193214180      -22.9215390528  MEMB      169             0.0000000000
     19663       169  SAPE      C11           -16.2636395085      -31.6403756954      -21.3006951787  MEMB      169             0.0000000000
     19664       169  SAPE      H11A          -15.7957944230      -32.6303691603      -21.1126664901  MEMB      169             0.0000000000
     19665       169  SAPE      H11B          -17.2100412205      -31.7606847313      -21.8700549012  MEMB      169             0.0000000000
     19666       169  SAPE      P             -17.1142187854      -32.0719128096      -18.9388955068  MEMB      169             0.0000000000
     19667       169  SAPE      O13           -18.4907490051      -32.5532860329      -19.2254624079  MEMB      169             0.0000000000
     19668       169  SAPE      O14           -16.0252767798      -33.0824914146      -18.6698864749  MEMB      169             0.0000000000
     19669       169  SAPE      O12           -16.5520501319      -31.1525556104      -20.0538011137  MEMB      169             0.0000000000
     19670       169  SAPE      O11           -17.1628667009      -31.0829324011      -17.6894426399  MEMB      169             0.0000000000
     19671       169  SAPE      C1            -17.9197770309      -29.8812919155      -17.6524793128  MEMB      169             0.0000000000
     19672       169  SAPE      HA            -17.1837154332      -29.0662147475      -17.4845994984  MEMB      169             0.0000000000
     19673       169  SAPE      HB            -18.5805027107      -29.6786326888      -18.5223597418  MEMB      169             0.0000000000
     19674       169  SAPE      C2            -18.8623328332      -29.9988759951      -16.3509004464  MEMB      169             0.0000000000
     19675       169  SAPE      HS            -19.6604647714      -29.2328237703      -16.4532241435  MEMB      169             0.0000000000
     19676       169  SAPE      O21           -18.0591038153      -29.8065508182      -15.1657733498  MEMB      169             0.0000000000
     19677       169  SAPE      C21           -17.5623076409      -28.6354294815      -14.8997263916  MEMB      169             0.0000000000
     19678       169  SAPE      O22           -17.6486886442      -27.6658630635      -15.6111804158  MEMB      169             0.0000000000
     19679       169  SAPE      C22           -16.5787588678      -28.6807362637      -13.7715974587  MEMB      169             0.0000000000
     19680       169  SAPE      H2R           -16.8652618456      -29.2697815797      -12.8742328845  MEMB      169             0.0000000000
     19681       169  SAPE      H2S           -15.6299236659      -29.1842298809      -14.0553699066  MEMB      169             0.0000000000
     19682       169  SAPE      C3            -19.5835618352      -31.3589183029      -16.2080552970  MEMB      169             0.0000000000
     19683       169  SAPE      HX            -18.8829241471      -32.2159112143      -16.3028754209  MEMB      169             0.0000000000
     19684       169  SAPE      HY            -20.2392743039      -31.3327286622      -17.1045349665  MEMB      169             0.0000000000
     19685       169  SAPE      O31           -20.3776478169      -31.4856726870      -14.9935081256  MEMB      169             0.0000000000
     19686       169  SAPE      C31           -19.8384714858      -32.2350628451      -14.0152775711  MEMB      169             0.0000000000
     19687       169  SAPE      O32           -18.8095937929      -32.8795229449      -14.1506636053  MEMB      169             0.0000000000
     19688       169  SAPE      C32           -20.5111416884      -32.0021174243      -12.7228800468  MEMB      169             0.0000000000
     19689       169  SAPE      H2X           -19.8082537822      -32.3474095897      -11.9348171650  MEMB      169             0.0000000000
     19690       169  SAPE      H2Y           -21.4272944450      -32.5916691324      -12.5051331406  MEMB      169             0.0000000000
     19691       169  SAPE      C23           -16.2023945713      -27.2125807518      -13.4343791716  MEMB      169             0.0000000000
     19692       169  SAPE      H3R           -17.0126234815      -26.4749937663      -13.6182686026  MEMB      169             0.0000000000
     19693       169  SAPE      H3S           -15.4692568040      -26.8582120479      -14.1901917226  MEMB      169             0.0000000000
     19694       169  SAPE      C24           -15.5803510065      -27.0516069904      -12.0921012615  MEMB      169             0.0000000000
     19695       169  SAPE      H4R           -15.0840998955      -26.0616897052      -12.1822088067  MEMB      169             0.0000000000
     19696       169  SAPE      H4S           -14.7535665459      -27.7914605608      -12.0340901979  MEMB      169             0.0000000000
     19697       169  SAPE      C25           -16.5237907900      -27.0773449414      -10.8769235845  MEMB      169             0.0000000000
     19698       169  SAPE      H5R           -17.0029070181      -26.0875811403      -10.9054773069  MEMB      169             0.0000000000
     19699       169  SAPE      C26           -16.8289313966      -28.0461481443      -10.0081869129  MEMB      169             0.0000000000
     19700       169  SAPE      H6R           -17.4524131217      -27.6871341484       -9.1760940200  MEMB      169             0.0000000000
     19701       169  SAPE      C27           -16.3149707456      -29.4848719933      -10.0188651153  MEMB      169             0.0000000000
     19702       169  SAPE      H7R           -15.5260092837      -29.4841136113      -10.8010801801  MEMB      169             0.0000000000
     19703       169  SAPE      H7S           -17.0933889924      -30.2556267183      -10.2041305967  MEMB      169             0.0000000000
     19704       169  SAPE      C28           -15.5629648289      -29.8225338094       -8.7795745931  MEMB      169             0.0000000000
     19705       169  SAPE      H8R           -14.5019588963      -29.5688353522       -8.9206548231  MEMB      169             0.0000000000
     19706       169  SAPE      C29           -16.1235496085      -30.2374404103       -7.6567905336  MEMB      169             0.0000000000
     19707       169  SAPE      H9R           -15.4714442743      -30.1023622676       -6.7812830259  MEMB      169             0.0000000000
     19708       169  SAPE      C210          -17.5410024289      -30.4674409243       -7.2482753036  MEMB      169             0.0000000000
     19709       169  SAPE      H10R          -18.0256086505      -29.6633130455       -7.8422924373  MEMB      169             0.0000000000
     19710       169  SAPE      H10S          -17.7425519538      -30.2240787553       -6.1831586954  MEMB      169             0.0000000000
     19711       169  SAPE      C211          -18.2937874899      -31.6490584008       -7.7755747304  MEMB      169             0.0000000000
     19712       169  SAPE      H11R          -18.2795141986      -31.6990227701       -8.8743457815  MEMB      169             0.0000000000
     19713       169  SAPE      C212          -19.0578362042      -32.5382269936       -7.0855157921  MEMB      169             0.0000000000
     19714       169  SAPE      H12R          -19.6835786479      -33.1493497237       -7.7525808091  MEMB      169             0.0000000000
     19715       169  SAPE      C213          -19.3497717096      -32.6683457566       -5.6460404490  MEMB      169             0.0000000000
     19716       169  SAPE      H13R          -20.0427247561      -33.5331943964       -5.5674679058  MEMB      169             0.0000000000
     19717       169  SAPE      H13S          -19.9934352998      -31.7848888530       -5.4472391625  MEMB      169             0.0000000000
     19718       169  SAPE      C214          -18.2178435177      -32.8368110173       -4.7566909425  MEMB      169             0.0000000000
     19719       169  SAPE      H14R          -17.3624919516      -32.2801744311       -5.1672143751  MEMB      169             0.0000000000
     19720       169  SAPE      C215          -18.1407455506      -33.4433416453       -3.5328478558  MEMB      169             0.0000000000
     19721       169  SAPE      H15R          -17.1221079006      -33.5753469804       -3.1392087286  MEMB      169             0.0000000000
     19722       169  SAPE      C216          -19.2576675182      -34.1405458815       -2.7481837663  MEMB      169             0.0000000000
     19723       169  SAPE      H16R          -19.1714483502      -35.2365219498       -2.5877984561  MEMB      169             0.0000000000
     19724       169  SAPE      H16S          -20.1929310786      -34.1359586854       -3.3478364568  MEMB      169             0.0000000000
     19725       169  SAPE      C217          -19.6636653130      -33.3596227192       -1.4867440545  MEMB      169             0.0000000000
     19726       169  SAPE      H17R          -20.7537624348      -33.3136842090       -1.2772220214  MEMB      169             0.0000000000
     19727       169  SAPE      H17S          -19.5046001087      -32.2635939635       -1.5747234778  MEMB      169             0.0000000000
     19728       169  SAPE      C218          -18.7985117977      -33.7380411675       -0.2889513715  MEMB      169             0.0000000000
     19729       169  SAPE      H18R          -17.7238038190      -33.4596395470       -0.2463326217  MEMB      169             0.0000000000
     19730       169  SAPE      H18S          -18.8985299744      -34.8440739528       -0.2571875098  MEMB      169             0.0000000000
     19731       169  SAPE      C219          -19.4445678491      -33.2275174618        1.0466210325  MEMB      169             0.0000000000
     19732       169  SAPE      H19R          -18.9100229465      -33.5482245189        1.9662568327  MEMB      169             0.0000000000
     19733       169  SAPE      H19S          -20.4349371319      -33.6790869224        1.2692735801  MEMB      169             0.0000000000
     19734       169  SAPE      C220          -19.5396489974      -31.6823137441        1.3110059959  MEMB      169             0.0000000000
     19735       169  SAPE      H20R          -20.4613642567      -31.2433704663        0.8727239168  MEMB      169             0.0000000000
     19736       169  SAPE      H20S          -18.5963191885      -31.1323295277        1.1061471908  MEMB      169             0.0000000000
     19737       169  SAPE      H20T          -19.7949579760      -31.7144078622        2.3917966657  MEMB      169             0.0000000000
     19738       169  SAPE      C33           -20.8070270882      -30.5068572047      -12.4833050135  MEMB      169             0.0000000000
     19739       169  SAPE      H3X           -21.2182511387      -30.0731443548      -13.4198459838  MEMB      169             0.0000000000
     19740       169  SAPE      H3Y           -19.8464105744      -30.0247590236      -12.2020260733  MEMB      169             0.0000000000
     19741       169  SAPE      C34           -21.8912856527      -30.3173140489      -11.3407736166  MEMB      169             0.0000000000
     19742       169  SAPE      H4X           -22.5639066501      -31.1995963449      -11.3997621556  MEMB      169             0.0000000000
     19743       169  SAPE      H4Y           -22.3874558239      -29.3304354440      -11.4599658998  MEMB      169             0.0000000000
     19744       169  SAPE      C35           -21.1856001354      -30.2256754500       -9.9063296663  MEMB      169             0.0000000000
     19745       169  SAPE      H5X           -20.2737901796      -29.5914592356       -9.9326614599  MEMB      169             0.0000000000
     19746       169  SAPE      H5Y           -20.7303099715      -31.2133778515       -9.6794472372  MEMB      169             0.0000000000
     19747       169  SAPE      C36           -22.2155663797      -29.9725148331       -8.7915692144  MEMB      169             0.0000000000
     19748       169  SAPE      H6X           -22.8226103011      -30.8922553078       -8.9326230461  MEMB      169             0.0000000000
     19749       169  SAPE      H6Y           -22.8172949393      -29.0794362228       -9.0647978675  MEMB      169             0.0000000000
     19750       169  SAPE      C37           -21.7132623959      -29.8489076032       -7.3616106791  MEMB      169             0.0000000000
     19751       169  SAPE      H7X           -20.8812997481      -30.5793551126       -7.4543779820  MEMB      169             0.0000000000
     19752       169  SAPE      H7Y           -22.5102063794      -30.0091092510       -6.6042892829  MEMB      169             0.0000000000
     19753       169  SAPE      C38           -21.2302115620      -28.3964491156       -6.9605910356  MEMB      169             0.0000000000
     19754       169  SAPE      H8X           -22.1002736102      -27.7483054226       -6.7213778608  MEMB      169             0.0000000000
     19755       169  SAPE      H8Y           -20.6197913741      -27.9233332599       -7.7592583726  MEMB      169             0.0000000000
     19756       169  SAPE      C39           -20.4037887126      -28.5967038763       -5.6396283115  MEMB      169             0.0000000000
     19757       169  SAPE      H9X           -19.7256313471      -29.4246747618       -5.9377684911  MEMB      169             0.0000000000
     19758       169  SAPE      H9Y           -21.0866095112      -28.9528368102       -4.8388499771  MEMB      169             0.0000000000
     19759       169  SAPE      C310          -19.7126319400      -27.4085637173       -5.1463805351  MEMB      169             0.0000000000
     19760       169  SAPE      H10X          -20.3909936455      -26.5295010799       -5.1837288082  MEMB      169             0.0000000000
     19761       169  SAPE      H10Y          -18.9152906020      -27.1150592888       -5.8622179685  MEMB      169             0.0000000000
     19762       169  SAPE      C311          -19.2398378915      -27.2738831902       -3.6966189083  MEMB      169             0.0000000000
     19763       169  SAPE      H11X          -19.8795799742      -28.0175509416       -3.1750745335  MEMB      169             0.0000000000
     19764       169  SAPE      H11Y          -19.4018667327      -26.2586685696       -3.2754237775  MEMB      169             0.0000000000
     19765       169  SAPE      C312          -17.7983117215      -27.8920591589       -3.3364646188  MEMB      169             0.0000000000
     19766       169  SAPE      H12X          -17.8757383126      -28.9727615621       -3.5822468377  MEMB      169             0.0000000000
     19767       169  SAPE      H12Y          -17.7215352458      -27.7951368342       -2.2323673370  MEMB      169             0.0000000000
     19768       169  SAPE      C313          -16.6120951076      -27.2126264586       -3.9249535620  MEMB      169             0.0000000000
     19769       169  SAPE      H13X          -16.3858472682      -26.2424900440       -3.4330512710  MEMB      169             0.0000000000
     19770       169  SAPE      H13Y          -16.6852515289      -27.0757284542       -5.0250574402  MEMB      169             0.0000000000
     19771       169  SAPE      C314          -15.3479561958      -28.1933867897       -3.8435505709  MEMB      169             0.0000000000
     19772       169  SAPE      H14X          -14.5913469414      -27.4407225700       -4.1523543160  MEMB      169             0.0000000000
     19773       169  SAPE      H14Y          -15.3754192118      -29.0169662239       -4.5887247233  MEMB      169             0.0000000000
     19774       169  SAPE      C315          -15.0455089766      -28.6627024847       -2.4233113295  MEMB      169             0.0000000000
     19775       169  SAPE      H15X          -15.8298137428      -29.3313168225       -2.0084119635  MEMB      169             0.0000000000
     19776       169  SAPE      H15Y          -14.9793468256      -27.7554812481       -1.7854287782  MEMB      169             0.0000000000
     19777       169  SAPE      C316          -13.7643930344      -29.3501208559       -2.1246849556  MEMB      169             0.0000000000
     19778       169  SAPE      H16X          -13.4940267242      -29.4040635182       -1.0484339785  MEMB      169             0.0000000000
     19779       169  SAPE      H16Y          -12.9215622539      -28.6782814358       -2.3941083292  MEMB      169             0.0000000000
     19780       169  SAPE      C317          -13.4645430207      -30.7307285205       -2.7927946280  MEMB      169             0.0000000000
     19781       169  SAPE      H17X          -12.3571057424      -30.8002821976       -2.7374234113  MEMB      169             0.0000000000
     19782       169  SAPE      H17Y          -13.7395832588      -30.6700659679       -3.8675002362  MEMB      169             0.0000000000
     19783       169  SAPE      C318          -14.0022827577      -31.9424865101       -1.9291572089  MEMB      169             0.0000000000
     19784       169  SAPE      H18X          -13.5269133762      -32.9312402050       -2.1044017676  MEMB      169             0.0000000000
     19785       169  SAPE      H18Y          -15.1060475990      -31.8891264493       -2.0439456758  MEMB      169             0.0000000000
     19786       169  SAPE      H18Z          -13.7737917087      -31.8022489480       -0.8509884706  MEMB      169             0.0000000000
     19787       170  CHL1      C3              6.4044003634       36.9731799607      -17.3147250000  MEMB      170             0.0000000000
     19788       170  CHL1      H3              5.8470731781       36.2445834952      -16.6879350000  MEMB      170             0.0000000000
     19789       170  CHL1      O3              6.0419177643       36.8846924486      -18.6852750000  MEMB      170             0.0000000000
     19790       170  CHL1      H3'             6.2117821488       35.9660301042      -18.9062250000  MEMB      170             0.0000000000
     19791       170  CHL1      C4              6.3805764122       38.4276716198      -16.7424150000  MEMB      170             0.0000000000
     19792       170  CHL1      H4A             7.2000704050       39.0142494290      -17.2100450000  MEMB      170             0.0000000000
     19793       170  CHL1      H4B             5.4168154717       38.9337455377      -16.9646450000  MEMB      170             0.0000000000
     19794       170  CHL1      C5              6.7702041172       38.3634393096      -15.2563350000  MEMB      170             0.0000000000
     19795       170  CHL1      C6              5.8889052923       38.7620818379      -14.3551950000  MEMB      170             0.0000000000
     19796       170  CHL1      H6              4.9034481863       39.0862835510      -14.7209550000  MEMB      170             0.0000000000
     19797       170  CHL1      C7              6.1108763280       38.7412440214      -12.8906650000  MEMB      170             0.0000000000
     19798       170  CHL1      H7A             5.5011889408       39.5146527507      -12.3764150000  MEMB      170             0.0000000000
     19799       170  CHL1      H7B             5.5204702822       37.8205822527      -12.6954650000  MEMB      170             0.0000000000
     19800       170  CHL1      C8              7.5629463134       38.4586462122      -12.4115250000  MEMB      170             0.0000000000
     19801       170  CHL1      H8              8.0867250266       39.4170920774      -12.6149150000  MEMB      170             0.0000000000
     19802       170  CHL1      C14             7.6100122558       38.0460450930      -10.9560850000  MEMB      170             0.0000000000
     19803       170  CHL1      H14             7.0637808602       37.0788871699      -10.9795550000  MEMB      170             0.0000000000
     19804       170  CHL1      C15             6.9624188404       38.9004725111       -9.8977550000  MEMB      170             0.0000000000
     19805       170  CHL1      H15A            7.2818547953       39.9586034745      -10.0101950000  MEMB      170             0.0000000000
     19806       170  CHL1      H15B            5.8549313531       38.8176452958       -9.9282050000  MEMB      170             0.0000000000
     19807       170  CHL1      C16             7.5485127934       38.3227611357       -8.6287550000  MEMB      170             0.0000000000
     19808       170  CHL1      H16A            7.7716941137       39.2122101445       -8.0015450000  MEMB      170             0.0000000000
     19809       170  CHL1      H16B            6.8017063858       37.7481387378       -8.0401950000  MEMB      170             0.0000000000
     19810       170  CHL1      C17             8.7445295016       37.3880820236       -8.9855550000  MEMB      170             0.0000000000
     19811       170  CHL1      H17             8.3612903051       36.3456219522       -9.0122550000  MEMB      170             0.0000000000
     19812       170  CHL1      C13             9.0423280283       37.7711150782      -10.4240350000  MEMB      170             0.0000000000
     19813       170  CHL1      C18             9.9042691278       39.0713308518      -10.4800550000  MEMB      170             0.0000000000
     19814       170  CHL1      H18A            9.5716780192       39.7803749569       -9.6920550000  MEMB      170             0.0000000000
     19815       170  CHL1      H18B           10.9236865620       38.7868863281      -10.1421450000  MEMB      170             0.0000000000
     19816       170  CHL1      H18C            9.9522524151       39.5276235344      -11.4918950000  MEMB      170             0.0000000000
     19817       170  CHL1      C12             9.6538346962       36.6699403432      -11.2604650000  MEMB      170             0.0000000000
     19818       170  CHL1      H12A           10.7031739695       36.4832350054      -10.9468750000  MEMB      170             0.0000000000
     19819       170  CHL1      H12B            9.0777143561       35.7200727410      -11.2732850000  MEMB      170             0.0000000000
     19820       170  CHL1      C11             9.6617733723       37.1413728974      -12.7465250000  MEMB      170             0.0000000000
     19821       170  CHL1      H11A           10.3822898585       37.9793214084      -12.8606150000  MEMB      170             0.0000000000
     19822       170  CHL1      H11B           10.0610768023       36.2090042601      -13.1999250000  MEMB      170             0.0000000000
     19823       170  CHL1      C9              8.2582429184       37.3901919502      -13.3200350000  MEMB      170             0.0000000000
     19824       170  CHL1      H9              7.6977746290       36.4430716755      -13.1678650000  MEMB      170             0.0000000000
     19825       170  CHL1      C10             8.1531860360       37.7225149940      -14.8814750000  MEMB      170             0.0000000000
     19826       170  CHL1      C19             9.3663874336       38.6760243832      -15.1802950000  MEMB      170             0.0000000000
     19827       170  CHL1      H19A            9.1702044654       39.1715168380      -16.1551350000  MEMB      170             0.0000000000
     19828       170  CHL1      H19B            9.4806083485       39.5303828512      -14.4793250000  MEMB      170             0.0000000000
     19829       170  CHL1      H19C           10.3662077950       38.1996512980      -15.2681950000  MEMB      170             0.0000000000
     19830       170  CHL1      C1              8.3660558034       36.4061036298      -15.7458850000  MEMB      170             0.0000000000
     19831       170  CHL1      H1A             9.4592484904       36.2349311123      -15.6460750000  MEMB      170             0.0000000000
     19832       170  CHL1      H1B             7.9732565986       35.5226317494      -15.1986050000  MEMB      170             0.0000000000
     19833       170  CHL1      C2              7.8410610177       36.4521282870      -17.1757450000  MEMB      170             0.0000000000
     19834       170  CHL1      H2A             7.9112595213       35.4248827191      -17.5930750000  MEMB      170             0.0000000000
     19835       170  CHL1      H2B             8.5262272970       37.0681238052      -17.7965750000  MEMB      170             0.0000000000
     19836       170  CHL1      C20             9.8475718132       37.5368724386       -7.8710150000  MEMB      170             0.0000000000
     19837       170  CHL1      H20            10.1732376048       38.5987013520       -7.8989150000  MEMB      170             0.0000000000
     19838       170  CHL1      C21            11.1049418995       36.7076731103       -7.9958050000  MEMB      170             0.0000000000
     19839       170  CHL1      H21A           11.5539939651       36.8683377895       -8.9992350000  MEMB      170             0.0000000000
     19840       170  CHL1      H21B           10.9331937651       35.6131848673       -7.9126850000  MEMB      170             0.0000000000
     19841       170  CHL1      H21C           11.9312781110       36.8876143833       -7.2753050000  MEMB      170             0.0000000000
     19842       170  CHL1      C22             9.1196539655       37.3154090972       -6.4668250000  MEMB      170             0.0000000000
     19843       170  CHL1      H22A            8.4925119914       38.2048361660       -6.2433650000  MEMB      170             0.0000000000
     19844       170  CHL1      H22B            8.3648507453       36.5125118853       -6.6080850000  MEMB      170             0.0000000000
     19845       170  CHL1      C23            10.0040656464       36.9544532366       -5.3105250000  MEMB      170             0.0000000000
     19846       170  CHL1      H23A           10.3247290607       35.8907646963       -5.3188150000  MEMB      170             0.0000000000
     19847       170  CHL1      H23B           10.8995566039       37.6110868919       -5.2752250000  MEMB      170             0.0000000000
     19848       170  CHL1      C24             9.3659138635       37.2274733100       -3.9054450000  MEMB      170             0.0000000000
     19849       170  CHL1      H24A            8.9849773402       38.2687660710       -3.9755650000  MEMB      170             0.0000000000
     19850       170  CHL1      H24B            8.5645292455       36.4666738817       -3.7901250000  MEMB      170             0.0000000000
     19851       170  CHL1      C25            10.3550861632       37.2860756438       -2.7608250000  MEMB      170             0.0000000000
     19852       170  CHL1      H25            11.2822290545       37.8627127673       -2.9663050000  MEMB      170             0.0000000000
     19853       170  CHL1      C26             9.7014305929       37.7979795981       -1.4387350000  MEMB      170             0.0000000000
     19854       170  CHL1      H26A            8.8405124830       37.1232425090       -1.2440950000  MEMB      170             0.0000000000
     19855       170  CHL1      H26B           10.4709277111       37.8132138526       -0.6375050000  MEMB      170             0.0000000000
     19856       170  CHL1      H26C            9.1482739813       38.7553921369       -1.5469650000  MEMB      170             0.0000000000
     19857       170  CHL1      C27            10.8408680942       35.7975011077       -2.4778850000  MEMB      170             0.0000000000
     19858       170  CHL1      H27A           11.2279439206       35.3263991569       -3.4066250000  MEMB      170             0.0000000000
     19859       170  CHL1      H27B           11.6669989826       35.8701416429       -1.7385950000  MEMB      170             0.0000000000
     19860       170  CHL1      H27C            9.9531822180       35.2540849948       -2.0892550000  MEMB      170             0.0000000000
     19861       171  CHL1      C3            -15.5220536136       33.9886040715      -17.3087750000  MEMB      171             0.0000000000
     19862       171  CHL1      H3            -14.5127016020       33.9184938128      -16.8498450000  MEMB      171             0.0000000000
     19863       171  CHL1      O3            -15.3336825864       33.5565857285      -18.6912250000  MEMB      171             0.0000000000
     19864       171  CHL1      H3'           -15.3586048013       32.6042245338      -18.5729350000  MEMB      171             0.0000000000
     19865       171  CHL1      C4            -16.4964963448       33.1165630658      -16.4932550000  MEMB      171             0.0000000000
     19866       171  CHL1      H4A           -17.5213003448       33.1356840417      -16.9219150000  MEMB      171             0.0000000000
     19867       171  CHL1      H4B           -16.1309126232       32.0675112343      -16.4811550000  MEMB      171             0.0000000000
     19868       171  CHL1      C5            -16.6028637721       33.7405497792      -15.0793050000  MEMB      171             0.0000000000
     19869       171  CHL1      C6            -16.3160995842       32.8766107718      -14.0465350000  MEMB      171             0.0000000000
     19870       171  CHL1      H6            -16.1329895120       31.8034075891      -14.2037450000  MEMB      171             0.0000000000
     19871       171  CHL1      C7            -16.4429956018       33.3107033362      -12.5985450000  MEMB      171             0.0000000000
     19872       171  CHL1      H7A           -17.0255179651       32.5482806269      -12.0384450000  MEMB      171             0.0000000000
     19873       171  CHL1      H7B           -15.4012474342       33.4469437537      -12.2372950000  MEMB      171             0.0000000000
     19874       171  CHL1      C8            -17.0808429416       34.7062012781      -12.4022650000  MEMB      171             0.0000000000
     19875       171  CHL1      H8            -18.1856044530       34.6253750556      -12.4875950000  MEMB      171             0.0000000000
     19876       171  CHL1      C14           -16.7622133954       35.4315465871      -11.1254950000  MEMB      171             0.0000000000
     19877       171  CHL1      H14           -15.7125177183       35.7929272784      -11.1687250000  MEMB      171             0.0000000000
     19878       171  CHL1      C15           -16.8517661673       34.5481624602       -9.8773950000  MEMB      171             0.0000000000
     19879       171  CHL1      H15A          -17.7849630526       33.9453028556       -9.8762950000  MEMB      171             0.0000000000
     19880       171  CHL1      H15B          -16.0682616495       33.7914128047       -9.6588250000  MEMB      171             0.0000000000
     19881       171  CHL1      C16           -16.9189686545       35.5517739921       -8.7873850000  MEMB      171             0.0000000000
     19882       171  CHL1      H16A          -17.8000196706       35.3831236614       -8.1319150000  MEMB      171             0.0000000000
     19883       171  CHL1      H16B          -16.0613237499       35.6109306717       -8.0836350000  MEMB      171             0.0000000000
     19884       171  CHL1      C17           -16.9034471058       36.9720412763       -9.3999850000  MEMB      171             0.0000000000
     19885       171  CHL1      H17           -15.8567280438       37.3045038598       -9.5678250000  MEMB      171             0.0000000000
     19886       171  CHL1      C13           -17.4686059200       36.7541063624      -10.8318950000  MEMB      171             0.0000000000
     19887       171  CHL1      C18           -18.9764380764       36.6481456863      -10.8564950000  MEMB      171             0.0000000000
     19888       171  CHL1      H18A          -19.3211705257       35.9725726965      -10.0446550000  MEMB      171             0.0000000000
     19889       171  CHL1      H18B          -19.5737243473       37.5677764466      -10.6779750000  MEMB      171             0.0000000000
     19890       171  CHL1      H18C          -19.2250067200       36.1868275086      -11.8361450000  MEMB      171             0.0000000000
     19891       171  CHL1      C12           -16.9965028960       37.7291188821      -11.8583550000  MEMB      171             0.0000000000
     19892       171  CHL1      H12A          -17.5562389606       38.6882736352      -11.8263250000  MEMB      171             0.0000000000
     19893       171  CHL1      H12B          -15.9157676089       37.9668108872      -11.7591550000  MEMB      171             0.0000000000
     19894       171  CHL1      C11           -17.2199474174       37.1629658771      -13.3091750000  MEMB      171             0.0000000000
     19895       171  CHL1      H11A          -18.3219185808       37.0604476271      -13.4065550000  MEMB      171             0.0000000000
     19896       171  CHL1      H11B          -16.8575644915       37.8926290284      -14.0645450000  MEMB      171             0.0000000000
     19897       171  CHL1      C9            -16.6697639815       35.7136991994      -13.5206250000  MEMB      171             0.0000000000
     19898       171  CHL1      H9            -15.5629121455       35.7843712828      -13.4557950000  MEMB      171             0.0000000000
     19899       171  CHL1      C10           -16.9176678341       35.2226761727      -14.9471550000  MEMB      171             0.0000000000
     19900       171  CHL1      C19           -18.4248488926       35.3575425094      -15.3942750000  MEMB      171             0.0000000000
     19901       171  CHL1      H19A          -19.0821218191       34.7458982976      -14.7398950000  MEMB      171             0.0000000000
     19902       171  CHL1      H19B          -18.7083249908       36.4317009492      -15.3820650000  MEMB      171             0.0000000000
     19903       171  CHL1      H19C          -18.6562231290       35.0666456016      -16.4412550000  MEMB      171             0.0000000000
     19904       171  CHL1      C1            -16.0525533430       35.9925738942      -15.9379750000  MEMB      171             0.0000000000
     19905       171  CHL1      H1A           -16.4045120320       37.0455831603      -15.9783150000  MEMB      171             0.0000000000
     19906       171  CHL1      H1B           -15.0371465600       36.0212593897      -15.4880350000  MEMB      171             0.0000000000
     19907       171  CHL1      C2            -15.8950853693       35.4451254989      -17.3288250000  MEMB      171             0.0000000000
     19908       171  CHL1      H2A           -15.0795252570       35.9588614230      -17.8813050000  MEMB      171             0.0000000000
     19909       171  CHL1      H2B           -16.8284791201       35.5444258864      -17.9231650000  MEMB      171             0.0000000000
     19910       171  CHL1      C20           -17.6147420374       38.0127585860       -8.4697950000  MEMB      171             0.0000000000
     19911       171  CHL1      H20           -18.7158645512       37.9055850278       -8.3679650000  MEMB      171             0.0000000000
     19912       171  CHL1      C21           -17.5514947949       39.4351460497       -9.0672050000  MEMB      171             0.0000000000
     19913       171  CHL1      H21A          -16.5533351003       39.9194408196       -9.1259350000  MEMB      171             0.0000000000
     19914       171  CHL1      H21B          -18.2014142239       40.1456837540       -8.5130850000  MEMB      171             0.0000000000
     19915       171  CHL1      H21C          -17.9949961024       39.4316976872      -10.0858350000  MEMB      171             0.0000000000
     19916       171  CHL1      C22           -16.9465244639       37.8962048086       -7.0304550000  MEMB      171             0.0000000000
     19917       171  CHL1      H22A          -17.1298636619       36.8480705974       -6.7109050000  MEMB      171             0.0000000000
     19918       171  CHL1      H22B          -15.8761976378       38.1684191824       -7.1513650000  MEMB      171             0.0000000000
     19919       171  CHL1      C23           -17.5906314406       38.6675814576       -5.9178250000  MEMB      171             0.0000000000
     19920       171  CHL1      H23A          -17.4861201681       39.7675966631       -6.0334650000  MEMB      171             0.0000000000
     19921       171  CHL1      H23B          -18.6551683663       38.3826200428       -6.0588250000  MEMB      171             0.0000000000
     19922       171  CHL1      C24           -17.1111680965       38.3726950611       -4.5058350000  MEMB      171             0.0000000000
     19923       171  CHL1      H24A          -16.0439224483       38.6548992268       -4.3806850000  MEMB      171             0.0000000000
     19924       171  CHL1      H24B          -17.6390558346       39.0507546663       -3.8016450000  MEMB      171             0.0000000000
     19925       171  CHL1      C25           -17.2894642158       36.9300075494       -4.0329350000  MEMB      171             0.0000000000
     19926       171  CHL1      H25           -16.6628815696       36.3036508998       -4.7033150000  MEMB      171             0.0000000000
     19927       171  CHL1      C26           -16.7151378425       36.6810511454       -2.6121750000  MEMB      171             0.0000000000
     19928       171  CHL1      H26A          -17.3938158452       37.0894001852       -1.8330950000  MEMB      171             0.0000000000
     19929       171  CHL1      H26B          -16.6449033374       35.5921526106       -2.4031550000  MEMB      171             0.0000000000
     19930       171  CHL1      H26C          -15.6813341712       37.0685402387       -2.4879850000  MEMB      171             0.0000000000
     19931       171  CHL1      C27           -18.7609334945       36.4234665677       -3.9997450000  MEMB      171             0.0000000000
     19932       171  CHL1      H27A          -19.1795469869       36.2523465834       -5.0145350000  MEMB      171             0.0000000000
     19933       171  CHL1      H27B          -18.8642357747       35.4125350915       -3.5506650000  MEMB      171             0.0000000000
     19934       171  CHL1      H27C          -19.4039544947       37.1289970091       -3.4313450000  MEMB      171             0.0000000000
     19935       172  SLPC      N             -35.7903634238        6.9381458031      -15.7712352383  MEMB      172             0.0000000000
     19936       172  SLPC      C13           -35.5298391593        8.3833720375      -16.1174957885  MEMB      172             0.0000000000
     19937       172  SLPC      H13A          -36.1784433081        8.5892481456      -16.9561420519  MEMB      172             0.0000000000
     19938       172  SLPC      H13B          -35.7309681113        8.9823576372      -15.2416170670  MEMB      172             0.0000000000
     19939       172  SLPC      H13C          -34.5248066254        8.3861804723      -16.5128457416  MEMB      172             0.0000000000
     19940       172  SLPC      C14           -35.2583171425        6.7436561724      -14.3519460924  MEMB      172             0.0000000000
     19941       172  SLPC      H14A          -34.1822460280        6.8281439272      -14.3154386140  MEMB      172             0.0000000000
     19942       172  SLPC      H14B          -35.7434577644        7.4402289428      -13.6842449685  MEMB      172             0.0000000000
     19943       172  SLPC      H14C          -35.4916751356        5.7404802328      -14.0270124992  MEMB      172             0.0000000000
     19944       172  SLPC      C15           -34.9373361777        6.2055296044      -16.7472803158  MEMB      172             0.0000000000
     19945       172  SLPC      H15A          -35.0875773500        5.1461128088      -16.6007754818  MEMB      172             0.0000000000
     19946       172  SLPC      H15B          -35.3137700303        6.4304201166      -17.7342563967  MEMB      172             0.0000000000
     19947       172  SLPC      H15C          -33.8718863429        6.3670680265      -16.6757121950  MEMB      172             0.0000000000
     19948       172  SLPC      C12           -37.2547555129        6.6120084392      -15.7836118207  MEMB      172             0.0000000000
     19949       172  SLPC      H12A          -37.7580658702        7.4511443246      -15.3265235774  MEMB      172             0.0000000000
     19950       172  SLPC      H12B          -37.4130458732        5.7941264408      -15.0962888076  MEMB      172             0.0000000000
     19951       172  SLPC      C11           -37.9009712831        6.2835488908      -17.1584899378  MEMB      172             0.0000000000
     19952       172  SLPC      H11A          -38.9860768930        6.1142932487      -16.9905037818  MEMB      172             0.0000000000
     19953       172  SLPC      H11B          -37.5337267804        5.4300211795      -17.7675407261  MEMB      172             0.0000000000
     19954       172  SLPC      P             -38.9460370186        8.4496096862      -18.2666008772  MEMB      172             0.0000000000
     19955       172  SLPC      O13           -38.6740665830        9.1950695606      -19.5097761175  MEMB      172             0.0000000000
     19956       172  SLPC      O14           -40.3243411528        7.8194138273      -18.2079526976  MEMB      172             0.0000000000
     19957       172  SLPC      O12           -37.7096536648        7.4722494794      -18.0375851527  MEMB      172             0.0000000000
     19958       172  SLPC      O11           -38.7322933868        9.4681442280      -17.0480259629  MEMB      172             0.0000000000
     19959       172  SLPC      C1            -38.1795338133       10.7687233847      -17.1667404727  MEMB      172             0.0000000000
     19960       172  SLPC      HA            -37.0881111877       10.7496049603      -16.9599746239  MEMB      172             0.0000000000
     19961       172  SLPC      HB            -38.2306642904       11.2239905472      -18.1788859443  MEMB      172             0.0000000000
     19962       172  SLPC      C2            -38.8225608194       11.7842490302      -16.1581648732  MEMB      172             0.0000000000
     19963       172  SLPC      HS            -38.3278308253       12.7764472952      -16.2296236931  MEMB      172             0.0000000000
     19964       172  SLPC      O21           -38.7733043215       11.2413168913      -14.8089746254  MEMB      172             0.0000000000
     19965       172  SLPC      C21           -37.5961051355       11.1063712822      -14.2388810003  MEMB      172             0.0000000000
     19966       172  SLPC      O22           -36.5137549307       11.4282712811      -14.7074753763  MEMB      172             0.0000000000
     19967       172  SLPC      C22           -37.8835308630       10.3661923324      -12.9127103846  MEMB      172             0.0000000000
     19968       172  SLPC      H2R           -38.9408066392       10.0768541255      -12.7316795039  MEMB      172             0.0000000000
     19969       172  SLPC      H2S           -37.3271160922        9.4101619495      -12.8091271153  MEMB      172             0.0000000000
     19970       172  SLPC      C3            -40.2948232141       12.1169521575      -16.4733943831  MEMB      172             0.0000000000
     19971       172  SLPC      HX            -40.2275907054       12.5854292605      -17.4785460143  MEMB      172             0.0000000000
     19972       172  SLPC      HY            -40.7684605479       12.8643279965      -15.8015179135  MEMB      172             0.0000000000
     19973       172  SLPC      O31           -41.1391900166       11.0228927400      -16.6094447225  MEMB      172             0.0000000000
     19974       172  SLPC      C31           -41.8311706677       10.6396983576      -15.4785413646  MEMB      172             0.0000000000
     19975       172  SLPC      O32           -41.8308185793       11.2709455646      -14.4653078947  MEMB      172             0.0000000000
     19976       172  SLPC      C32           -42.6559708892        9.3609613596      -15.7655338240  MEMB      172             0.0000000000
     19977       172  SLPC      H2X           -42.2277986515        8.7245069374      -16.5692223472  MEMB      172             0.0000000000
     19978       172  SLPC      H2Y           -43.6942338639        9.6983547182      -15.9716829227  MEMB      172             0.0000000000
     19979       172  SLPC      C23           -37.3887459827       11.2187232294      -11.8193798549  MEMB      172             0.0000000000
     19980       172  SLPC      H3R           -37.9643679077       12.1673256226      -11.7633996048  MEMB      172             0.0000000000
     19981       172  SLPC      H3S           -36.3141066102       11.4417289923      -11.9918323286  MEMB      172             0.0000000000
     19982       172  SLPC      C24           -37.4948569936       10.5809456478      -10.3902685164  MEMB      172             0.0000000000
     19983       172  SLPC      H4R           -37.4144092692       11.3868897671       -9.6298062107  MEMB      172             0.0000000000
     19984       172  SLPC      H4S           -36.6243145506        9.8906734965      -10.3891649732  MEMB      172             0.0000000000
     19985       172  SLPC      C25           -38.8303599237        9.8397801874      -10.1494335579  MEMB      172             0.0000000000
     19986       172  SLPC      H5R           -38.6677715576        9.3348097904       -9.1732720582  MEMB      172             0.0000000000
     19987       172  SLPC      H5S           -38.9842083032        9.0358816215      -10.9006985490  MEMB      172             0.0000000000
     19988       172  SLPC      C26           -40.0383566247       10.7804925290      -10.1883889018  MEMB      172             0.0000000000
     19989       172  SLPC      H6R           -39.9585918926       10.9415935108      -11.2847489780  MEMB      172             0.0000000000
     19990       172  SLPC      H6S           -39.8435768610       11.6302796176       -9.4997351622  MEMB      172             0.0000000000
     19991       172  SLPC      C27           -41.4017104840       10.1356668920       -9.9363754390  MEMB      172             0.0000000000
     19992       172  SLPC      H7R           -41.5314519889        9.0728750100      -10.2329579225  MEMB      172             0.0000000000
     19993       172  SLPC      H7S           -42.1969652207       10.6511461021      -10.5161787065  MEMB      172             0.0000000000
     19994       172  SLPC      C28           -41.8561653259       10.1140737814       -8.5082688383  MEMB      172             0.0000000000
     19995       172  SLPC      H8R           -41.1037943315        9.4853598933       -7.9857962310  MEMB      172             0.0000000000
     19996       172  SLPC      H8S           -42.7623636024        9.4733505007       -8.4572811760  MEMB      172             0.0000000000
     19997       172  SLPC      C29           -42.1160330592       11.4287340938       -7.8478400499  MEMB      172             0.0000000000
     19998       172  SLPC      H9R           -43.0665596297       11.9000151761       -8.1383443275  MEMB      172             0.0000000000
     19999       172  SLPC      C210          -41.4210734218       12.0884556340       -6.9051326974  MEMB      172             0.0000000000
     20000       172  SLPC      H10R          -41.7709050142       13.0766205034       -6.5717435875  MEMB      172             0.0000000000
     20001       172  SLPC      C211          -40.2030415415       11.5736817384       -6.3051140045  MEMB      172             0.0000000000
     20002       172  SLPC      H11R          -39.8647552620       10.5816187145       -6.6734808922  MEMB      172             0.0000000000
     20003       172  SLPC      H11S          -40.5325255018       11.3248459712       -5.2736863071  MEMB      172             0.0000000000
     20004       172  SLPC      C212          -39.0512914636       12.5370727679       -6.1748297362  MEMB      172             0.0000000000
     20005       172  SLPC      H12R          -38.7131957901       12.7814251191       -7.1926625075  MEMB      172             0.0000000000
     20006       172  SLPC      C213          -38.5391263215       13.1594256921       -5.1407875689  MEMB      172             0.0000000000
     20007       172  SLPC      H13R          -37.7208738313       13.8656520831       -5.3450108599  MEMB      172             0.0000000000
     20008       172  SLPC      C214          -38.9679342231       13.0960993577       -3.6623674548  MEMB      172             0.0000000000
     20009       172  SLPC      H14R          -38.0597695477       13.1023864708       -3.0224311769  MEMB      172             0.0000000000
     20010       172  SLPC      H14S          -39.5246623579       12.1462478898       -3.5135156864  MEMB      172             0.0000000000
     20011       172  SLPC      C215          -39.9574381039       14.2136424916       -3.3443124870  MEMB      172             0.0000000000
     20012       172  SLPC      H15R          -40.8353127203       13.9702059600       -3.9802342366  MEMB      172             0.0000000000
     20013       172  SLPC      H15S          -39.5122873096       15.2019824223       -3.5879226794  MEMB      172             0.0000000000
     20014       172  SLPC      C216          -40.4045902954       14.4027338892       -1.8675060639  MEMB      172             0.0000000000
     20015       172  SLPC      H16R          -41.2915678983       15.0699582870       -1.8184849477  MEMB      172             0.0000000000
     20016       172  SLPC      H16S          -39.5449130566       15.0030164973       -1.5001678563  MEMB      172             0.0000000000
     20017       172  SLPC      C217          -40.6139100380       13.0848122926       -1.0725581093  MEMB      172             0.0000000000
     20018       172  SLPC      H17R          -41.0867496438       13.4286810891       -0.1278363916  MEMB      172             0.0000000000
     20019       172  SLPC      H17S          -39.6818502096       12.5099806863       -0.8850642416  MEMB      172             0.0000000000
     20020       172  SLPC      C218          -41.6227658820       12.1580373994       -1.7367747756  MEMB      172             0.0000000000
     20021       172  SLPC      H18R          -42.4158418167       12.6248328962       -2.3592318368  MEMB      172             0.0000000000
     20022       172  SLPC      H18S          -42.0775223586       11.3757630078       -1.0921311713  MEMB      172             0.0000000000
     20023       172  SLPC      H18T          -41.0715369953       11.5127110031       -2.4537276708  MEMB      172             0.0000000000
     20024       172  SLPC      C33           -42.5696549314        8.5214126083      -14.4705990570  MEMB      172             0.0000000000
     20025       172  SLPC      H3X           -43.2704166552        7.6649284895      -14.5690333520  MEMB      172             0.0000000000
     20026       172  SLPC      H3Y           -42.9330960143        9.1360459880      -13.6194484168  MEMB      172             0.0000000000
     20027       172  SLPC      C34           -41.2110560013        8.0156090634      -14.0349247370  MEMB      172             0.0000000000
     20028       172  SLPC      H4X           -40.5522407109        8.8963192928      -13.8779759111  MEMB      172             0.0000000000
     20029       172  SLPC      H4Y           -40.7301428771        7.5170347003      -14.9035253192  MEMB      172             0.0000000000
     20030       172  SLPC      C35           -41.2780447933        7.0585047004      -12.8229737309  MEMB      172             0.0000000000
     20031       172  SLPC      H5X           -41.9143769986        6.2224032568      -13.1839956804  MEMB      172             0.0000000000
     20032       172  SLPC      H5Y           -41.5763046788        7.6802339579      -11.9518739891  MEMB      172             0.0000000000
     20033       172  SLPC      C36           -39.9267298353        6.4171295065      -12.4105443104  MEMB      172             0.0000000000
     20034       172  SLPC      H6X           -39.0868921748        7.1350132515      -12.2937678581  MEMB      172             0.0000000000
     20035       172  SLPC      H6Y           -39.5802080144        5.6203077116      -13.1028723114  MEMB      172             0.0000000000
     20036       172  SLPC      C37           -40.1208972776        5.5569881069      -11.1684184100  MEMB      172             0.0000000000
     20037       172  SLPC      H7X           -40.7098350211        4.6208196119      -11.2735932192  MEMB      172             0.0000000000
     20038       172  SLPC      H7Y           -40.8096314263        5.9180933907      -10.3749644189  MEMB      172             0.0000000000
     20039       172  SLPC      C38           -38.8474225445        5.2376301631      -10.4241620165  MEMB      172             0.0000000000
     20040       172  SLPC      H8X           -38.0028455523        4.8728803904      -11.0470331004  MEMB      172             0.0000000000
     20041       172  SLPC      H8Y           -39.1728591430        4.5311218691       -9.6309037733  MEMB      172             0.0000000000
     20042       172  SLPC      C39           -38.3179992379        6.4323281161       -9.6444687913  MEMB      172             0.0000000000
     20043       172  SLPC      H9X           -39.2189819445        6.8022270309       -9.1099354800  MEMB      172             0.0000000000
     20044       172  SLPC      H9Y           -37.9578534947        7.2057396055      -10.3561224863  MEMB      172             0.0000000000
     20045       172  SLPC      C310          -37.2447905601        6.1164883857       -8.5540267860  MEMB      172             0.0000000000
     20046       172  SLPC      H10X          -36.3075710801        5.8300878717       -9.0773958380  MEMB      172             0.0000000000
     20047       172  SLPC      H10Y          -37.5551639594        5.2711043107       -7.9033997738  MEMB      172             0.0000000000
     20048       172  SLPC      C311          -36.7792077658        7.3150460740       -7.7218878627  MEMB      172             0.0000000000
     20049       172  SLPC      H11X          -36.2869671974        8.1198088051       -8.3087245063  MEMB      172             0.0000000000
     20050       172  SLPC      H11Y          -36.0269231074        6.8884505411       -7.0244601893  MEMB      172             0.0000000000
     20051       172  SLPC      C312          -37.8660785636        7.9219341484       -6.7886432776  MEMB      172             0.0000000000
     20052       172  SLPC      H12X          -38.4431322019        7.1229035955       -6.2759249593  MEMB      172             0.0000000000
     20053       172  SLPC      H12Y          -38.5984900416        8.3375526100       -7.5133191855  MEMB      172             0.0000000000
     20054       172  SLPC      C313          -37.4106580359        9.1790619763       -6.0228080484  MEMB      172             0.0000000000
     20055       172  SLPC      H13X          -38.2482284155        9.7111954396       -5.5231769639  MEMB      172             0.0000000000
     20056       172  SLPC      H13Y          -36.9464536037        9.8521939473       -6.7749572366  MEMB      172             0.0000000000
     20057       172  SLPC      C314          -36.6184700027        8.8880168371       -4.7262086071  MEMB      172             0.0000000000
     20058       172  SLPC      H14X          -35.7397051170        8.2171145641       -4.8356771712  MEMB      172             0.0000000000
     20059       172  SLPC      H14Y          -37.2562109652        8.2490072002       -4.0786946872  MEMB      172             0.0000000000
     20060       172  SLPC      C315          -36.0322401080       10.0614006780       -3.9875556498  MEMB      172             0.0000000000
     20061       172  SLPC      H15X          -36.8195832173       10.7248836528       -3.5701789925  MEMB      172             0.0000000000
     20062       172  SLPC      H15Y          -35.5116167437       10.5941851577       -4.8118201131  MEMB      172             0.0000000000
     20063       172  SLPC      C316          -35.2817364724        9.6624123030       -2.6881824827  MEMB      172             0.0000000000
     20064       172  SLPC      H16X          -35.8316246795        9.0499469946       -1.9419718304  MEMB      172             0.0000000000
     20065       172  SLPC      H16Y          -35.0309933221       10.5390238255       -2.0533587198  MEMB      172             0.0000000000
     20066       172  SLPC      C317          -33.8504886319        9.1214579219       -3.1866246989  MEMB      172             0.0000000000
     20067       172  SLPC      H17X          -33.0663001429        9.7862775130       -2.7654535252  MEMB      172             0.0000000000
     20068       172  SLPC      H17Y          -33.9721782450        9.2081691705       -4.2875301405  MEMB      172             0.0000000000
     20069       172  SLPC      C318          -33.5440633466        7.6599847235       -2.7363677558  MEMB      172             0.0000000000
     20070       172  SLPC      H18X          -34.0121071650        6.8864913810       -3.3820958335  MEMB      172             0.0000000000
     20071       172  SLPC      H18Y          -33.6585919805        7.4978772720       -1.6432419713  MEMB      172             0.0000000000
     20072       172  SLPC      H18Z          -32.4547409716        7.5647093216       -2.9328903592  MEMB      172             0.0000000000
     20073       173  CHL1      C3             13.7865196713       34.0387729990      -17.3967500000  MEMB      173             0.0000000000
     20074       173  CHL1      H3             12.9483624801       33.3311061811      -17.5729100000  MEMB      173             0.0000000000
     20075       173  CHL1      O3             14.1656383287       34.6199072010      -18.6032500000  MEMB      173             0.0000000000
     20076       173  CHL1      H3'            14.5504792848       33.9229547668      -19.1396700000  MEMB      173             0.0000000000
     20077       173  CHL1      C4             13.4054990695       35.1499533601      -16.4273900000  MEMB      173             0.0000000000
     20078       173  CHL1      H4A            14.1652526780       35.9504331227      -16.5551500000  MEMB      173             0.0000000000
     20079       173  CHL1      H4B            12.4739000606       35.6683565906      -16.7399800000  MEMB      173             0.0000000000
     20080       173  CHL1      C5             13.1772498559       34.6876938643      -15.0135000000  MEMB      173             0.0000000000
     20081       173  CHL1      C6             12.0845451261       34.9414727625      -14.3144000000  MEMB      173             0.0000000000
     20082       173  CHL1      H6             11.3959337351       35.6155357296      -14.8449400000  MEMB      173             0.0000000000
     20083       173  CHL1      C7             11.8097728464       34.4910927921      -12.8505000000  MEMB      173             0.0000000000
     20084       173  CHL1      H7A            11.4245580021       35.3997209186      -12.3402900000  MEMB      173             0.0000000000
     20085       173  CHL1      H7B            11.0772226843       33.6572805137      -12.8009500000  MEMB      173             0.0000000000
     20086       173  CHL1      C8             13.1101955155       33.9948259089      -12.1549200000  MEMB      173             0.0000000000
     20087       173  CHL1      H8             13.7570553759       34.8634321220      -11.9070700000  MEMB      173             0.0000000000
     20088       173  CHL1      C14            12.7040878902       33.2135537010      -10.9139100000  MEMB      173             0.0000000000
     20089       173  CHL1      H14            12.1312523747       32.3424129325      -11.2977100000  MEMB      173             0.0000000000
     20090       173  CHL1      C15            11.8418700719       33.9617246379       -9.8414600000  MEMB      173             0.0000000000
     20091       173  CHL1      H15A           12.1238948917       35.0267964523       -9.6986400000  MEMB      173             0.0000000000
     20092       173  CHL1      H15B           10.7827227491       33.9086839113      -10.1727000000  MEMB      173             0.0000000000
     20093       173  CHL1      C16            12.0650064172       33.1644495690       -8.5466100000  MEMB      173             0.0000000000
     20094       173  CHL1      H16A           12.6331508983       33.8155768602       -7.8483400000  MEMB      173             0.0000000000
     20095       173  CHL1      H16B           11.1873699853       32.7557148169       -8.0016300000  MEMB      173             0.0000000000
     20096       173  CHL1      C17            13.1316001964       32.1029678282       -8.9017700000  MEMB      173             0.0000000000
     20097       173  CHL1      H17            12.6960317847       31.1279507837       -9.2082800000  MEMB      173             0.0000000000
     20098       173  CHL1      C13            13.8780512223       32.6292139491      -10.1043900000  MEMB      173             0.0000000000
     20099       173  CHL1      C18            14.9111389811       33.6890453115       -9.7327200000  MEMB      173             0.0000000000
     20100       173  CHL1      H18A           14.5282646391       34.3755719014       -8.9476100000  MEMB      173             0.0000000000
     20101       173  CHL1      H18B           15.7523694159       33.1161431746       -9.2872600000  MEMB      173             0.0000000000
     20102       173  CHL1      H18C           15.3248017596       34.2126875896      -10.6209900000  MEMB      173             0.0000000000
     20103       173  CHL1      C12            14.5533969130       31.6156505811      -10.9863000000  MEMB      173             0.0000000000
     20104       173  CHL1      H12A           15.3738967471       31.0600880000      -10.4838600000  MEMB      173             0.0000000000
     20105       173  CHL1      H12B           13.9735957654       30.7081082609      -11.2592600000  MEMB      173             0.0000000000
     20106       173  CHL1      C11            15.0411499840       32.2411014692      -12.3436800000  MEMB      173             0.0000000000
     20107       173  CHL1      H11A           15.9226705778       32.8366669945      -12.0234600000  MEMB      173             0.0000000000
     20108       173  CHL1      H11B           15.5027718422       31.4560406314      -12.9800100000  MEMB      173             0.0000000000
     20109       173  CHL1      C9             14.0311047136       33.1286484517      -13.1439800000  MEMB      173             0.0000000000
     20110       173  CHL1      H9             13.2671392391       32.3764913161      -13.4354500000  MEMB      173             0.0000000000
     20111       173  CHL1      C10            14.3777890049       33.8177467175      -14.5051900000  MEMB      173             0.0000000000
     20112       173  CHL1      C19            15.5153685233       34.7458425681      -14.4456500000  MEMB      173             0.0000000000
     20113       173  CHL1      H19A           15.3058318135       35.5546209197      -13.7133400000  MEMB      173             0.0000000000
     20114       173  CHL1      H19B           16.3691417200       34.1799623059      -14.0153300000  MEMB      173             0.0000000000
     20115       173  CHL1      H19C           15.8427633846       35.2109028758      -15.4000400000  MEMB      173             0.0000000000
     20116       173  CHL1      C1             14.5685959530       32.6263571446      -15.5085200000  MEMB      173             0.0000000000
     20117       173  CHL1      H1A            15.3604741539       31.9467142423      -15.1272700000  MEMB      173             0.0000000000
     20118       173  CHL1      H1B            13.6599230203       31.9947298710      -15.6068500000  MEMB      173             0.0000000000
     20119       173  CHL1      C2             14.8929540128       33.1843943717      -16.8982800000  MEMB      173             0.0000000000
     20120       173  CHL1      H2A            15.0785891486       32.3250624766      -17.5775600000  MEMB      173             0.0000000000
     20121       173  CHL1      H2B            15.8999792074       33.6027270962      -16.6856200000  MEMB      173             0.0000000000
     20122       173  CHL1      C20            13.9534334817       31.7179741177       -7.6075800000  MEMB      173             0.0000000000
     20123       173  CHL1      H20            14.4696558486       32.6587347331       -7.3198300000  MEMB      173             0.0000000000
     20124       173  CHL1      C21            15.0894905124       30.6993235852       -7.7539000000  MEMB      173             0.0000000000
     20125       173  CHL1      H21A           15.4231825963       30.2527388658       -6.7929000000  MEMB      173             0.0000000000
     20126       173  CHL1      H21B           15.9609828683       31.1170848557       -8.3019000000  MEMB      173             0.0000000000
     20127       173  CHL1      H21C           14.6455757564       29.8518323147       -8.3187200000  MEMB      173             0.0000000000
     20128       173  CHL1      C22            13.1147122609       31.3145237627       -6.3262200000  MEMB      173             0.0000000000
     20129       173  CHL1      H22A           12.3354243587       32.0849478750       -6.1432200000  MEMB      173             0.0000000000
     20130       173  CHL1      H22B           12.6416743922       30.3310478769       -6.5344000000  MEMB      173             0.0000000000
     20131       173  CHL1      C23            13.8762776792       31.1486641962       -5.0052000000  MEMB      173             0.0000000000
     20132       173  CHL1      H23A           14.5447841121       30.2613888663       -4.9929800000  MEMB      173             0.0000000000
     20133       173  CHL1      H23B           14.5022955546       32.0597301322       -4.8938900000  MEMB      173             0.0000000000
     20134       173  CHL1      C24            12.9121869274       30.8713821666       -3.8438100000  MEMB      173             0.0000000000
     20135       173  CHL1      H24A           12.3782333418       29.9632112317       -4.1965800000  MEMB      173             0.0000000000
     20136       173  CHL1      H24B           13.5735974066       30.7515686442       -2.9592200000  MEMB      173             0.0000000000
     20137       173  CHL1      C25            11.8509810198       31.8600938549       -3.5118600000  MEMB      173             0.0000000000
     20138       173  CHL1      H25            11.0609517840       31.7125971448       -4.2789400000  MEMB      173             0.0000000000
     20139       173  CHL1      C26            11.3784914139       31.7342900462       -2.0091500000  MEMB      173             0.0000000000
     20140       173  CHL1      H26A           10.9400964551       32.6990783475       -1.6755300000  MEMB      173             0.0000000000
     20141       173  CHL1      H26B           10.5287244851       31.0211013087       -1.9494700000  MEMB      173             0.0000000000
     20142       173  CHL1      H26C           12.2762742127       31.4161849027       -1.4372000000  MEMB      173             0.0000000000
     20143       173  CHL1      C27            12.3427017365       33.2863374081       -3.6265900000  MEMB      173             0.0000000000
     20144       173  CHL1      H27A           12.5490833061       33.3972910990       -4.7126100000  MEMB      173             0.0000000000
     20145       173  CHL1      H27B           11.5502934327       33.9594217137       -3.2349700000  MEMB      173             0.0000000000
     20146       173  CHL1      H27C           13.2072013658       33.4722854719       -2.9540000000  MEMB      173             0.0000000000
     20147       174  SAPE      N              33.6937951115       17.5686461409      -22.4558889257  MEMB      174             0.0000000000
     20148       174  SAPE      HN1            34.6914298425       17.8097629941      -22.6237800878  MEMB      174             0.0000000000
     20149       174  SAPE      HN2            33.5271674865       16.5424335495      -22.4289980577  MEMB      174             0.0000000000
     20150       174  SAPE      HN3            33.1363367278       17.9684510079      -23.2375513101  MEMB      174             0.0000000000
     20151       174  SAPE      C12            33.3367125075       17.9646361851      -21.0779962890  MEMB      174             0.0000000000
     20152       174  SAPE      H12A           32.2869196175       17.6457933388      -20.9030820165  MEMB      174             0.0000000000
     20153       174  SAPE      H12B           33.4534949236       19.0552264911      -20.9010912194  MEMB      174             0.0000000000
     20154       174  SAPE      C11            34.2048575357       17.1859005779      -20.0978750343  MEMB      174             0.0000000000
     20155       174  SAPE      H11A           33.8638894745       17.4097696970      -19.0644610752  MEMB      174             0.0000000000
     20156       174  SAPE      H11B           35.2435423259       17.5631718655      -20.2124240225  MEMB      174             0.0000000000
     20157       174  SAPE      P              34.4087909497       14.7511753633      -19.2555814199  MEMB      174             0.0000000000
     20158       174  SAPE      O13            34.3152359768       13.4446717355      -19.9143761003  MEMB      174             0.0000000000
     20159       174  SAPE      O14            35.6385872957       15.0394917919      -18.5103188532  MEMB      174             0.0000000000
     20160       174  SAPE      O12            34.2767550694       15.8201381719      -20.4004599504  MEMB      174             0.0000000000
     20161       174  SAPE      O11            33.1011597663       14.9195267340      -18.2875034065  MEMB      174             0.0000000000
     20162       174  SAPE      C1             31.8546113025       15.1623245321      -19.0568976426  MEMB      174             0.0000000000
     20163       174  SAPE      HA             31.8865414101       16.0496803773      -19.7246558053  MEMB      174             0.0000000000
     20164       174  SAPE      HB             31.4858461268       14.3712947164      -19.7443602920  MEMB      174             0.0000000000
     20165       174  SAPE      C2             30.6813551922       15.3969087395      -18.1089018234  MEMB      174             0.0000000000
     20166       174  SAPE      HS             29.8772054110       15.8859728025      -18.6992240383  MEMB      174             0.0000000000
     20167       174  SAPE      O21            31.1501226842       16.1705916891      -16.9910900668  MEMB      174             0.0000000000
     20168       174  SAPE      C21            30.3240845884       16.8726740155      -16.2964951302  MEMB      174             0.0000000000
     20169       174  SAPE      O22            29.1525042409       17.0665395806      -16.5259297448  MEMB      174             0.0000000000
     20170       174  SAPE      C22            31.0336629767       17.3111919402      -15.0215543739  MEMB      174             0.0000000000
     20171       174  SAPE      H2R            30.8813924456       16.4865255023      -14.2928157273  MEMB      174             0.0000000000
     20172       174  SAPE      H2S            32.1379920429       17.3680612359      -15.1289970092  MEMB      174             0.0000000000
     20173       174  SAPE      C3             30.0447038309       14.0800123174      -17.5629482385  MEMB      174             0.0000000000
     20174       174  SAPE      HX             29.5943341779       13.6961770777      -18.5032452787  MEMB      174             0.0000000000
     20175       174  SAPE      HY             29.2123383113       14.1432342351      -16.8298101271  MEMB      174             0.0000000000
     20176       174  SAPE      O31            31.0433040975       13.1538847516      -17.1407989127  MEMB      174             0.0000000000
     20177       174  SAPE      C31            31.5733002521       13.2028720510      -15.8708642793  MEMB      174             0.0000000000
     20178       174  SAPE      O32            31.2699246033       14.0456850291      -14.9823833970  MEMB      174             0.0000000000
     20179       174  SAPE      C32            32.5877638590       12.0990134370      -15.6971307949  MEMB      174             0.0000000000
     20180       174  SAPE      H2X            33.0454839826       11.8360838106      -16.6747205210  MEMB      174             0.0000000000
     20181       174  SAPE      H2Y            32.0952942668       11.1232564298      -15.4978996705  MEMB      174             0.0000000000
     20182       174  SAPE      C23            30.5236263090       18.6444811463      -14.5333953897  MEMB      174             0.0000000000
     20183       174  SAPE      H3R            29.8300009857       19.1567452393      -15.2339600066  MEMB      174             0.0000000000
     20184       174  SAPE      H3S            31.3485376253       19.3824071055      -14.4369190447  MEMB      174             0.0000000000
     20185       174  SAPE      C24            29.6932036639       18.6395540610      -13.1572901613  MEMB      174             0.0000000000
     20186       174  SAPE      H4R            29.2971313026       19.6628548984      -12.9832126341  MEMB      174             0.0000000000
     20187       174  SAPE      H4S            30.3289604447       18.3884488449      -12.2814583077  MEMB      174             0.0000000000
     20188       174  SAPE      C25            28.5836612952       17.6064403793      -13.1461869517  MEMB      174             0.0000000000
     20189       174  SAPE      H5R            27.7806087508       17.8266298596      -13.8649520258  MEMB      174             0.0000000000
     20190       174  SAPE      C26            28.3468551821       16.5895142276      -12.3554288425  MEMB      174             0.0000000000
     20191       174  SAPE      H6R            27.4264231106       16.0258392822      -12.5677385120  MEMB      174             0.0000000000
     20192       174  SAPE      C27            29.1836116604       16.1272006944      -11.1746723157  MEMB      174             0.0000000000
     20193       174  SAPE      H7R            28.6464482574       15.3840567042      -10.5473660469  MEMB      174             0.0000000000
     20194       174  SAPE      H7S            29.2547774079       16.9576813529      -10.4401261483  MEMB      174             0.0000000000
     20195       174  SAPE      C28            30.6661315667       15.6775165325      -11.5238113861  MEMB      174             0.0000000000
     20196       174  SAPE      H8R            30.7993443200       15.3432781123      -12.5633005923  MEMB      174             0.0000000000
     20197       174  SAPE      C29            31.7536689245       15.7820351632      -10.8197088899  MEMB      174             0.0000000000
     20198       174  SAPE      H9R            32.6827763350       15.4723641919      -11.3205716783  MEMB      174             0.0000000000
     20199       174  SAPE      C210           31.7682832312       16.3524235425       -9.4765686100  MEMB      174             0.0000000000
     20200       174  SAPE      H10R           32.5999008142       15.9548116743       -8.8563771720  MEMB      174             0.0000000000
     20201       174  SAPE      H10S           30.9541443214       15.9990538794       -8.8082658469  MEMB      174             0.0000000000
     20202       174  SAPE      C211           31.9336152631       17.8234781269       -9.5726549781  MEMB      174             0.0000000000
     20203       174  SAPE      H11R           32.3445000382       18.1322044763      -10.5452098518  MEMB      174             0.0000000000
     20204       174  SAPE      C212           31.4665658312       18.8658973756       -8.8236782125  MEMB      174             0.0000000000
     20205       174  SAPE      H12R           31.6715679718       19.8881562132       -9.1743364700  MEMB      174             0.0000000000
     20206       174  SAPE      C213           30.5466851593       18.7827217403       -7.6005433449  MEMB      174             0.0000000000
     20207       174  SAPE      H13R           29.8814107199       17.8929309094       -7.6022880207  MEMB      174             0.0000000000
     20208       174  SAPE      H13S           29.7201287617       19.5178345031       -7.7041532256  MEMB      174             0.0000000000
     20209       174  SAPE      C214           31.2099470532       18.8003529318       -6.2225178048  MEMB      174             0.0000000000
     20210       174  SAPE      H14R           31.6616883894       19.7691506836       -5.9629782730  MEMB      174             0.0000000000
     20211       174  SAPE      C215           31.2624220886       17.7844966569       -5.3098670755  MEMB      174             0.0000000000
     20212       174  SAPE      H15R           31.7960539549       18.0670452700       -4.3904088146  MEMB      174             0.0000000000
     20213       174  SAPE      C216           30.6764195702       16.3207407190       -5.3450675028  MEMB      174             0.0000000000
     20214       174  SAPE      H16R           31.3907086299       15.5408886984       -5.0045636573  MEMB      174             0.0000000000
     20215       174  SAPE      H16S           30.4351682960       15.9640616775       -6.3692249436  MEMB      174             0.0000000000
     20216       174  SAPE      C217           29.3975285477       16.2116669904       -4.4540607205  MEMB      174             0.0000000000
     20217       174  SAPE      H17R           28.6025275737       16.9040001136       -4.8047304841  MEMB      174             0.0000000000
     20218       174  SAPE      H17S           29.6387855403       16.6956456873       -3.4835554913  MEMB      174             0.0000000000
     20219       174  SAPE      C218           28.7550545157       14.8210951073       -4.4429173350  MEMB      174             0.0000000000
     20220       174  SAPE      H18R           28.6571064450       14.3402301519       -5.4396601867  MEMB      174             0.0000000000
     20221       174  SAPE      H18S           27.7530737779       14.9112517672       -3.9715074179  MEMB      174             0.0000000000
     20222       174  SAPE      C219           29.4815425488       13.8817421588       -3.4832978115  MEMB      174             0.0000000000
     20223       174  SAPE      H19R           30.5633496700       14.1145317225       -3.3841832314  MEMB      174             0.0000000000
     20224       174  SAPE      H19S           29.4021342451       12.8147102318       -3.7823946837  MEMB      174             0.0000000000
     20225       174  SAPE      C220           28.9370295135       13.9356210925       -1.9832125965  MEMB      174             0.0000000000
     20226       174  SAPE      H20R           29.5991135180       13.2848822645       -1.3728812787  MEMB      174             0.0000000000
     20227       174  SAPE      H20S           27.8934482768       13.5562639412       -1.9465083157  MEMB      174             0.0000000000
     20228       174  SAPE      H20T           28.8864967113       14.8934871275       -1.4226230426  MEMB      174             0.0000000000
     20229       174  SAPE      C33            33.4431082382       12.4533999772      -14.5058152753  MEMB      174             0.0000000000
     20230       174  SAPE      H3X            33.8520730981       11.4845176834      -14.1475756358  MEMB      174             0.0000000000
     20231       174  SAPE      H3Y            32.8105540215       12.7042739358      -13.6276023251  MEMB      174             0.0000000000
     20232       174  SAPE      C34            34.5785738272       13.4856134295      -14.7710928173  MEMB      174             0.0000000000
     20233       174  SAPE      H4X            34.0516056955       14.2957552843      -15.3190851537  MEMB      174             0.0000000000
     20234       174  SAPE      H4Y            35.2752551813       13.0709735690      -15.5307172540  MEMB      174             0.0000000000
     20235       174  SAPE      C35            35.2439560784       13.9784543693      -13.5165551281  MEMB      174             0.0000000000
     20236       174  SAPE      H5X            34.4534233887       14.4063953258      -12.8636801641  MEMB      174             0.0000000000
     20237       174  SAPE      H5Y            35.9499132809       14.8073027916      -13.7378145807  MEMB      174             0.0000000000
     20238       174  SAPE      C36            36.1570434657       12.9937552158      -12.7184693535  MEMB      174             0.0000000000
     20239       174  SAPE      H6X            36.8194773201       12.4604385378      -13.4333650386  MEMB      174             0.0000000000
     20240       174  SAPE      H6Y            35.4148727044       12.3256254546      -12.2315340023  MEMB      174             0.0000000000
     20241       174  SAPE      C37            37.1036073797       13.6613499685      -11.7530716633  MEMB      174             0.0000000000
     20242       174  SAPE      H7X            37.7955170235       14.3014032214      -12.3412162119  MEMB      174             0.0000000000
     20243       174  SAPE      H7Y            37.7255109263       12.9248209651      -11.2007290054  MEMB      174             0.0000000000
     20244       174  SAPE      C38            36.3868326594       14.4324954930      -10.6206670889  MEMB      174             0.0000000000
     20245       174  SAPE      H8X            35.5829301417       13.7511274990      -10.2688163293  MEMB      174             0.0000000000
     20246       174  SAPE      H8Y            35.9608348099       15.4159596638      -10.9133190704  MEMB      174             0.0000000000
     20247       174  SAPE      C39            37.3320168378       14.7088245661       -9.4242320598  MEMB      174             0.0000000000
     20248       174  SAPE      H9X            37.6838768150       15.7623433868       -9.3994673374  MEMB      174             0.0000000000
     20249       174  SAPE      H9Y            38.1777370135       13.9928615802       -9.3437617127  MEMB      174             0.0000000000
     20250       174  SAPE      C310           36.5655175547       14.7211665196       -8.1255946206  MEMB      174             0.0000000000
     20251       174  SAPE      H10X           36.3976997452       13.6718573511       -7.8013897378  MEMB      174             0.0000000000
     20252       174  SAPE      H10Y           35.5597067867       15.1712139657       -8.2674501151  MEMB      174             0.0000000000
     20253       174  SAPE      C311           37.2821806361       15.5057462656       -7.0630517063  MEMB      174             0.0000000000
     20254       174  SAPE      H11X           37.4809033158       16.4635536807       -7.5897727758  MEMB      174             0.0000000000
     20255       174  SAPE      H11Y           38.2536400075       15.0278198344       -6.8137039190  MEMB      174             0.0000000000
     20256       174  SAPE      C312           36.4409666008       15.5882640985       -5.7833730823  MEMB      174             0.0000000000
     20257       174  SAPE      H12X           37.0470994151       15.7888592108       -4.8741508747  MEMB      174             0.0000000000
     20258       174  SAPE      H12Y           36.0041580123       14.5938462811       -5.5495936542  MEMB      174             0.0000000000
     20259       174  SAPE      C313           35.3913949910       16.6724104902       -5.8986831427  MEMB      174             0.0000000000
     20260       174  SAPE      H13X           34.5983990806       16.2101802633       -6.5246402602  MEMB      174             0.0000000000
     20261       174  SAPE      H13Y           35.8039345324       17.5437011337       -6.4509373982  MEMB      174             0.0000000000
     20262       174  SAPE      C314           34.7217157581       17.1087474029       -4.5373149661  MEMB      174             0.0000000000
     20263       174  SAPE      H14X           33.9614026915       17.9073054882       -4.6735133938  MEMB      174             0.0000000000
     20264       174  SAPE      H14Y           35.5019870904       17.6798210333       -3.9901656480  MEMB      174             0.0000000000
     20265       174  SAPE      C315           34.2227192552       15.9474969765       -3.7573289715  MEMB      174             0.0000000000
     20266       174  SAPE      H15X           35.1004369586       15.3944457258       -3.3597527535  MEMB      174             0.0000000000
     20267       174  SAPE      H15Y           33.6549031462       15.2832664897       -4.4434077282  MEMB      174             0.0000000000
     20268       174  SAPE      C316           33.3119258681       16.3242041171       -2.5622430989  MEMB      174             0.0000000000
     20269       174  SAPE      H16X           32.2368187279       16.1584932323       -2.7880876531  MEMB      174             0.0000000000
     20270       174  SAPE      H16Y           33.3177144125       17.4059512184       -2.3090431171  MEMB      174             0.0000000000
     20271       174  SAPE      C317           33.5399388075       15.6133806116       -1.2494175013  MEMB      174             0.0000000000
     20272       174  SAPE      H17X           34.4389553829       16.0371135813       -0.7528890374  MEMB      174             0.0000000000
     20273       174  SAPE      H17Y           33.7681981832       14.5336305553       -1.3773169304  MEMB      174             0.0000000000
     20274       174  SAPE      C318           32.3690187686       15.8040181272       -0.3919638435  MEMB      174             0.0000000000
     20275       174  SAPE      H18X           32.2772593830       16.8967222284       -0.2133600287  MEMB      174             0.0000000000
     20276       174  SAPE      H18Y           32.5140433651       15.1787326639        0.5148481708  MEMB      174             0.0000000000
     20277       174  SAPE      H18Z           31.4795586609       15.3742890163       -0.9004072388  MEMB      174             0.0000000000
     20278       175  CHL1      C3            -24.5992776223      -29.0272519579      -17.3788250000  MEMB      175             0.0000000000
     20279       175  CHL1      H3            -24.3441563205      -27.9541885189      -17.5121150000  MEMB      175             0.0000000000
     20280       175  CHL1      O3            -24.2535931777      -29.6302352421      -18.6211750000  MEMB      175             0.0000000000
     20281       175  CHL1      H3'           -25.0086307400      -29.5324149198      -19.2059450000  MEMB      175             0.0000000000
     20282       175  CHL1      C4            -23.6217355371      -29.5563436039      -16.3336950000  MEMB      175             0.0000000000
     20283       175  CHL1      H4A           -23.7647085188      -30.6486727218      -16.4774750000  MEMB      175             0.0000000000
     20284       175  CHL1      H4B           -22.5782767938      -29.2990010536      -16.6152550000  MEMB      175             0.0000000000
     20285       175  CHL1      C5            -23.8982797105      -29.0624863115      -14.9075550000  MEMB      175             0.0000000000
     20286       175  CHL1      C6            -22.9657564374      -28.3355411317      -14.2603050000  MEMB      175             0.0000000000
     20287       175  CHL1      H6            -21.9715253071      -28.1977059097      -14.7102950000  MEMB      175             0.0000000000
     20288       175  CHL1      C7            -23.1808707858      -27.9245822900      -12.7994050000  MEMB      175             0.0000000000
     20289       175  CHL1      H7A           -22.3083744842      -28.2850646567      -12.2136350000  MEMB      175             0.0000000000
     20290       175  CHL1      H7B           -23.3044171916      -26.8254830962      -12.6942950000  MEMB      175             0.0000000000
     20291       175  CHL1      C8            -24.4313160426      -28.6349550936      -12.1031550000  MEMB      175             0.0000000000
     20292       175  CHL1      H8            -24.1595117202      -29.7045773449      -11.9752150000  MEMB      175             0.0000000000
     20293       175  CHL1      C14           -24.7018746528      -27.9140125848      -10.7989450000  MEMB      175             0.0000000000
     20294       175  CHL1      H14           -24.8608344997      -26.8309085367      -10.9885150000  MEMB      175             0.0000000000
     20295       175  CHL1      C15           -23.6987845671      -28.0355001966       -9.6128150000  MEMB      175             0.0000000000
     20296       175  CHL1      H15A          -23.3649077426      -29.0862897903       -9.4761350000  MEMB      175             0.0000000000
     20297       175  CHL1      H15B          -22.8111393719      -27.3988342465       -9.8154650000  MEMB      175             0.0000000000
     20298       175  CHL1      C16           -24.5236699562      -27.6339373381       -8.4079850000  MEMB      175             0.0000000000
     20299       175  CHL1      H16A          -24.4224655593      -28.4592776541       -7.6711650000  MEMB      175             0.0000000000
     20300       175  CHL1      H16B          -24.1249691433      -26.7289388940       -7.9016950000  MEMB      175             0.0000000000
     20301       175  CHL1      C17           -26.0457257350      -27.5284373239       -8.8623550000  MEMB      175             0.0000000000
     20302       175  CHL1      H17           -26.1739532300      -26.4489473372       -9.0916950000  MEMB      175             0.0000000000
     20303       175  CHL1      C13           -26.0643128099      -28.3225415293      -10.2041350000  MEMB      175             0.0000000000
     20304       175  CHL1      C18           -26.1231497233      -29.8439054157       -9.9803350000  MEMB      175             0.0000000000
     20305       175  CHL1      H18A          -27.1468793975      -30.2418931391       -9.8132550000  MEMB      175             0.0000000000
     20306       175  CHL1      H18B          -25.6797567610      -30.4165971683      -10.8228050000  MEMB      175             0.0000000000
     20307       175  CHL1      H18C          -25.4657215257      -30.1901384059       -9.1543650000  MEMB      175             0.0000000000
     20308       175  CHL1      C12           -27.1368469121      -27.9673117574      -11.2291550000  MEMB      175             0.0000000000
     20309       175  CHL1      H12A          -28.1547407017      -28.2564835511      -10.8906650000  MEMB      175             0.0000000000
     20310       175  CHL1      H12B          -27.1514930560      -26.8566270996      -11.2509650000  MEMB      175             0.0000000000
     20311       175  CHL1      C11           -27.0210695912      -28.7199314155      -12.5436650000  MEMB      175             0.0000000000
     20312       175  CHL1      H11A          -27.2774990422      -29.7837708832      -12.3518450000  MEMB      175             0.0000000000
     20313       175  CHL1      H11B          -27.8509750293      -28.3064718344      -13.1557350000  MEMB      175             0.0000000000
     20314       175  CHL1      C9            -25.6395229635      -28.5622768293      -13.1135450000  MEMB      175             0.0000000000
     20315       175  CHL1      H9            -25.7233979796      -27.5147082714      -13.4739350000  MEMB      175             0.0000000000
     20316       175  CHL1      C10           -25.3369586051      -29.3848342045      -14.4132850000  MEMB      175             0.0000000000
     20317       175  CHL1      C19           -25.5271903500      -30.8915461305      -14.2131850000  MEMB      175             0.0000000000
     20318       175  CHL1      H19A          -24.7694969975      -31.2691038412      -13.4936950000  MEMB      175             0.0000000000
     20319       175  CHL1      H19B          -26.5446330967      -31.2115712152      -13.9021950000  MEMB      175             0.0000000000
     20320       175  CHL1      H19C          -25.3747074921      -31.3934967597      -15.1925350000  MEMB      175             0.0000000000
     20321       175  CHL1      C1            -26.3361068650      -28.8616063127      -15.5155250000  MEMB      175             0.0000000000
     20322       175  CHL1      H1A           -27.2908937331      -29.3823543195      -15.2885550000  MEMB      175             0.0000000000
     20323       175  CHL1      H1B           -26.4290654717      -27.7583389246      -15.4233250000  MEMB      175             0.0000000000
     20324       175  CHL1      C2            -26.0443359797      -29.2374248904      -17.0250850000  MEMB      175             0.0000000000
     20325       175  CHL1      H2A           -26.6358462529      -28.7104465648      -17.8040150000  MEMB      175             0.0000000000
     20326       175  CHL1      H2B           -26.1985297565      -30.3359282333      -17.0869550000  MEMB      175             0.0000000000
     20327       175  CHL1      C20           -27.0301765189      -27.9494987589       -7.7273450000  MEMB      175             0.0000000000
     20328       175  CHL1      H20           -26.6926551376      -28.9947863706       -7.5606650000  MEMB      175             0.0000000000
     20329       175  CHL1      C21           -28.4873610747      -27.9958175897       -8.2129650000  MEMB      175             0.0000000000
     20330       175  CHL1      H21A          -29.1643012920      -28.2790337565       -7.3787850000  MEMB      175             0.0000000000
     20331       175  CHL1      H21B          -28.6769738816      -28.7409405031       -9.0149450000  MEMB      175             0.0000000000
     20332       175  CHL1      H21C          -28.8430177425      -26.9802890755       -8.4896250000  MEMB      175             0.0000000000
     20333       175  CHL1      C22           -26.9773214382      -27.0827428240       -6.4952550000  MEMB      175             0.0000000000
     20334       175  CHL1      H22A          -25.9373049529      -26.7654157619       -6.2672050000  MEMB      175             0.0000000000
     20335       175  CHL1      H22B          -27.5869307882      -26.1760235051       -6.6966250000  MEMB      175             0.0000000000
     20336       175  CHL1      C23           -27.4966860412      -27.6592159423       -5.1193550000  MEMB      175             0.0000000000
     20337       175  CHL1      H23A          -28.5177091354      -28.0833885359       -5.2284950000  MEMB      175             0.0000000000
     20338       175  CHL1      H23B          -26.8039028666      -28.5060068254       -4.9262150000  MEMB      175             0.0000000000
     20339       175  CHL1      C24           -27.4037315647      -26.4976927629       -4.0256650000  MEMB      175             0.0000000000
     20340       175  CHL1      H24A          -26.3719209178      -26.1180498584       -4.1855350000  MEMB      175             0.0000000000
     20341       175  CHL1      H24B          -28.1022180963      -25.7040770067       -4.3671450000  MEMB      175             0.0000000000
     20342       175  CHL1      C25           -27.6879772970      -26.8041109032       -2.5241050000  MEMB      175             0.0000000000
     20343       175  CHL1      H25           -26.7897145876      -27.3536685766       -2.1699450000  MEMB      175             0.0000000000
     20344       175  CHL1      C26           -27.6472203616      -25.4803798322       -1.7529350000  MEMB      175             0.0000000000
     20345       175  CHL1      H26A          -27.9639334508      -25.4399236420       -0.6888050000  MEMB      175             0.0000000000
     20346       175  CHL1      H26B          -26.6606890561      -25.0092035258       -1.9505650000  MEMB      175             0.0000000000
     20347       175  CHL1      H26C          -28.3078730628      -24.7471485232       -2.2630550000  MEMB      175             0.0000000000
     20348       175  CHL1      C27           -28.9482841127      -27.6516171231       -2.3478150000  MEMB      175             0.0000000000
     20349       175  CHL1      H27A          -29.2576736939      -27.9278991444       -1.3171450000  MEMB      175             0.0000000000
     20350       175  CHL1      H27B          -29.7941610000      -27.0735001055       -2.7774550000  MEMB      175             0.0000000000
     20351       175  CHL1      H27C          -28.7942218443      -28.5649368459       -2.9613450000  MEMB      175             0.0000000000
     20352       176  CHL1      C3             36.4627616753      -12.1279718231      -17.2839700000  MEMB      176             0.0000000000
     20353       176  CHL1      H3             37.0605209751      -13.0335296699      -17.0452800000  MEMB      176             0.0000000000
     20354       176  CHL1      O3             36.5016789247      -11.9863701769      -18.7160300000  MEMB      176             0.0000000000
     20355       176  CHL1      H3'            36.1460348380      -11.1353476477      -18.9822500000  MEMB      176             0.0000000000
     20356       176  CHL1      C4             35.0153601870      -12.4298294529      -16.7339400000  MEMB      176             0.0000000000
     20357       176  CHL1      H4A            34.4074296814      -11.5863759946      -17.1255200000  MEMB      176             0.0000000000
     20358       176  CHL1      H4B            34.6281949644      -13.3424289230      -17.2355200000  MEMB      176             0.0000000000
     20359       176  CHL1      C5             34.9192991839      -12.5378805413      -15.2104500000  MEMB      176             0.0000000000
     20360       176  CHL1      C6             34.3050958864      -13.5496320917      -14.6418200000  MEMB      176             0.0000000000
     20361       176  CHL1      H6             33.6441817915      -14.2472557053      -15.1771000000  MEMB      176             0.0000000000
     20362       176  CHL1      C7             34.1669758352      -13.6540897877      -13.1484100000  MEMB      176             0.0000000000
     20363       176  CHL1      H7A            33.0995455706      -13.7884804294      -12.8711900000  MEMB      176             0.0000000000
     20364       176  CHL1      H7B            34.7648235329      -14.4501114383      -12.6552100000  MEMB      176             0.0000000000
     20365       176  CHL1      C8             34.5297244093      -12.3495745249      -12.4778700000  MEMB      176             0.0000000000
     20366       176  CHL1      H8             33.7481448002      -11.5789291490      -12.6498400000  MEMB      176             0.0000000000
     20367       176  CHL1      C14            34.7856885170      -12.6749442483      -10.9884900000  MEMB      176             0.0000000000
     20368       176  CHL1      H14            35.7401796163      -13.2335705565      -11.0942900000  MEMB      176             0.0000000000
     20369       176  CHL1      C15            33.8188290028      -13.6375493145      -10.1893900000  MEMB      176             0.0000000000
     20370       176  CHL1      H15A           32.8379287382      -13.4052615876      -10.6565000000  MEMB      176             0.0000000000
     20371       176  CHL1      H15B           34.0433017197      -14.6978813453      -10.4335900000  MEMB      176             0.0000000000
     20372       176  CHL1      C16            33.9698601327      -13.3449539983       -8.7404900000  MEMB      176             0.0000000000
     20373       176  CHL1      H16A           33.1939886628      -12.6686656170       -8.3221800000  MEMB      176             0.0000000000
     20374       176  CHL1      H16B           34.0509344472      -14.2205772004       -8.0614900000  MEMB      176             0.0000000000
     20375       176  CHL1      C17            35.2225115156      -12.3997700279       -8.7274900000  MEMB      176             0.0000000000
     20376       176  CHL1      H17            36.0876048043      -13.0598607435       -8.9515700000  MEMB      176             0.0000000000
     20377       176  CHL1      C13            35.2265844242      -11.5690626682      -10.0463500000  MEMB      176             0.0000000000
     20378       176  CHL1      C18            34.1375814506      -10.5064562114       -9.9756700000  MEMB      176             0.0000000000
     20379       176  CHL1      H18A           33.9073096049      -10.1177008447      -10.9906400000  MEMB      176             0.0000000000
     20380       176  CHL1      H18B           33.1786702209      -10.9128591446       -9.5888300000  MEMB      176             0.0000000000
     20381       176  CHL1      H18C           34.4543751642       -9.7241000444       -9.2532600000  MEMB      176             0.0000000000
     20382       176  CHL1      C12            36.6146171678      -10.9693387304      -10.5770000000  MEMB      176             0.0000000000
     20383       176  CHL1      H12A           37.0477692494      -10.0794997808      -10.0721500000  MEMB      176             0.0000000000
     20384       176  CHL1      H12B           37.4069040748      -11.7390386052      -10.4579500000  MEMB      176             0.0000000000
     20385       176  CHL1      C11            36.3993765299      -10.5600033979      -12.0564500000  MEMB      176             0.0000000000
     20386       176  CHL1      H11A           35.6485556581       -9.7427325496      -12.0048900000  MEMB      176             0.0000000000
     20387       176  CHL1      H11B           37.3636859320      -10.2014221307      -12.4757900000  MEMB      176             0.0000000000
     20388       176  CHL1      C9             35.9127933576      -11.7363644744      -12.9481200000  MEMB      176             0.0000000000
     20389       176  CHL1      H9             36.6107779436      -12.6005512369      -12.9303700000  MEMB      176             0.0000000000
     20390       176  CHL1      C10            35.7557196625      -11.4097341531      -14.4201500000  MEMB      176             0.0000000000
     20391       176  CHL1      C19            34.8834953557      -10.1584772167      -14.6001800000  MEMB      176             0.0000000000
     20392       176  CHL1      H19A           34.7613214589       -9.9077191847      -15.6755900000  MEMB      176             0.0000000000
     20393       176  CHL1      H19B           33.8590753681      -10.2608630828      -14.1825700000  MEMB      176             0.0000000000
     20394       176  CHL1      H19C           35.4306990077       -9.2952634450      -14.1645600000  MEMB      176             0.0000000000
     20395       176  CHL1      C1             37.1303871026      -11.3366522196      -15.0527600000  MEMB      176             0.0000000000
     20396       176  CHL1      H1A            37.5948000245      -10.4010595732      -14.6741800000  MEMB      176             0.0000000000
     20397       176  CHL1      H1B            37.8897981082      -12.1323355970      -14.8962400000  MEMB      176             0.0000000000
     20398       176  CHL1      C2             37.0442611717      -10.9585406750      -16.5260400000  MEMB      176             0.0000000000
     20399       176  CHL1      H2A            38.0458552694      -10.7906436218      -16.9765300000  MEMB      176             0.0000000000
     20400       176  CHL1      H2B            36.4789343008      -10.0210453494      -16.7153300000  MEMB      176             0.0000000000
     20401       176  CHL1      C20            35.5269176448      -11.7007730881       -7.3884000000  MEMB      176             0.0000000000
     20402       176  CHL1      H20            34.6566784401      -11.0124935583       -7.3312300000  MEMB      176             0.0000000000
     20403       176  CHL1      C21            36.7741204795      -10.8202144991       -7.4232500000  MEMB      176             0.0000000000
     20404       176  CHL1      H21A           37.6533270256      -11.3068423369       -7.8970600000  MEMB      176             0.0000000000
     20405       176  CHL1      H21B           37.0529615764      -10.3809038501       -6.4416300000  MEMB      176             0.0000000000
     20406       176  CHL1      H21C           36.5232130462       -9.9321399210       -8.0418700000  MEMB      176             0.0000000000
     20407       176  CHL1      C22            35.7166554195      -12.6947239477       -6.2978000000  MEMB      176             0.0000000000
     20408       176  CHL1      H22A           34.8185177868      -13.3477443588       -6.3330600000  MEMB      176             0.0000000000
     20409       176  CHL1      H22B           36.6287260936      -13.2861985212       -6.5271400000  MEMB      176             0.0000000000
     20410       176  CHL1      C23            35.9069532850      -12.0750950057       -4.8851100000  MEMB      176             0.0000000000
     20411       176  CHL1      H23A           37.0128696524      -12.0191961419       -4.7947900000  MEMB      176             0.0000000000
     20412       176  CHL1      H23B           35.4453877263      -11.0739979341       -5.0232600000  MEMB      176             0.0000000000
     20413       176  CHL1      C24            35.2444630848      -12.7042607133       -3.6672100000  MEMB      176             0.0000000000
     20414       176  CHL1      H24A           34.2212340426      -13.0533763793       -3.9230200000  MEMB      176             0.0000000000
     20415       176  CHL1      H24B           35.8463684640      -13.6152422514       -3.4619200000  MEMB      176             0.0000000000
     20416       176  CHL1      C25            35.1466414595      -11.7376999740       -2.4355900000  MEMB      176             0.0000000000
     20417       176  CHL1      H25            34.3415158321      -11.0177106640       -2.6958200000  MEMB      176             0.0000000000
     20418       176  CHL1      C26            34.6052308506      -12.4152472729       -1.1848900000  MEMB      176             0.0000000000
     20419       176  CHL1      H26A           33.5237011119      -12.6623891599       -1.2444400000  MEMB      176             0.0000000000
     20420       176  CHL1      H26B           35.0452662252      -13.4352528418       -1.1678800000  MEMB      176             0.0000000000
     20421       176  CHL1      H26C           34.7680151825      -11.7666009143       -0.2977100000  MEMB      176             0.0000000000
     20422       176  CHL1      C27            36.4854180289      -10.9910771873       -2.0250800000  MEMB      176             0.0000000000
     20423       176  CHL1      H27A           36.2038218105      -10.2046283315       -1.2926000000  MEMB      176             0.0000000000
     20424       176  CHL1      H27B           37.3222838744      -11.5529804578       -1.5579200000  MEMB      176             0.0000000000
     20425       176  CHL1      H27C           36.8759834854      -10.4593537445       -2.9189800000  MEMB      176             0.0000000000
     20426       177  SAPE      N              19.1508262943      -33.6571654251      -17.4075164388  MEMB      177             0.0000000000
     20427       177  SAPE      HN1            19.5918443792      -32.8138170943      -16.9881518385  MEMB      177             0.0000000000
     20428       177  SAPE      HN2            18.6576519553      -34.1908482919      -16.6634991802  MEMB      177             0.0000000000
     20429       177  SAPE      HN3            19.8436109414      -34.3252706742      -17.8015784079  MEMB      177             0.0000000000
     20430       177  SAPE      C12            18.1058191260      -33.3704902092      -18.4022533145  MEMB      177             0.0000000000
     20431       177  SAPE      H12A           17.2003013892      -32.9942346618      -17.8799597516  MEMB      177             0.0000000000
     20432       177  SAPE      H12B           17.8540363500      -34.3425050382      -18.8777672743  MEMB      177             0.0000000000
     20433       177  SAPE      C11            18.4977465924      -32.2940020015      -19.3490897615  MEMB      177             0.0000000000
     20434       177  SAPE      H11A           18.3587266603      -31.3625447412      -18.7596987613  MEMB      177             0.0000000000
     20435       177  SAPE      H11B           17.7736016343      -32.2778943869      -20.1915123358  MEMB      177             0.0000000000
     20436       177  SAPE      P              20.2268142288      -33.2414204398      -21.0495114852  MEMB      177             0.0000000000
     20437       177  SAPE      O13            19.3925695701      -34.4502683015      -21.1220313535  MEMB      177             0.0000000000
     20438       177  SAPE      O14            20.1345940296      -32.3273787760      -22.2075464948  MEMB      177             0.0000000000
     20439       177  SAPE      O12            19.8744510792      -32.3172219539      -19.7366590810  MEMB      177             0.0000000000
     20440       177  SAPE      O11            21.6951374935      -33.6255560716      -20.7253920311  MEMB      177             0.0000000000
     20441       177  SAPE      C1             22.6021450628      -32.8685724813      -19.8840410440  MEMB      177             0.0000000000
     20442       177  SAPE      HA             23.4069629884      -32.4284718153      -20.5108589388  MEMB      177             0.0000000000
     20443       177  SAPE      HB             22.0585458839      -32.1075225277      -19.2843546325  MEMB      177             0.0000000000
     20444       177  SAPE      C2             23.2678186706      -33.7580605539      -18.7525217526  MEMB      177             0.0000000000
     20445       177  SAPE      HS             23.8835438934      -34.5160950475      -19.2822262880  MEMB      177             0.0000000000
     20446       177  SAPE      O21            22.1899104512      -34.4721027726      -18.0220688590  MEMB      177             0.0000000000
     20447       177  SAPE      C21            22.2303759046      -35.7879886254      -17.9893960135  MEMB      177             0.0000000000
     20448       177  SAPE      O22            23.1479110034      -36.5094542999      -18.4272741470  MEMB      177             0.0000000000
     20449       177  SAPE      C22            20.9941235821      -36.3933484131      -17.2534066616  MEMB      177             0.0000000000
     20450       177  SAPE      H2R            20.0311033578      -36.2663087320      -17.7926411734  MEMB      177             0.0000000000
     20451       177  SAPE      H2S            21.2494114835      -37.4714041521      -17.1700676448  MEMB      177             0.0000000000
     20452       177  SAPE      C3             24.0939618608      -32.8349377278      -17.8813582819  MEMB      177             0.0000000000
     20453       177  SAPE      HX             24.7086415058      -32.3079393827      -18.6421227397  MEMB      177             0.0000000000
     20454       177  SAPE      HY             24.7768387422      -33.4141061329      -17.2236622490  MEMB      177             0.0000000000
     20455       177  SAPE      O31            23.3014092315      -31.8255114835      -17.2092993892  MEMB      177             0.0000000000
     20456       177  SAPE      C31            23.3366232066      -31.7768387640      -15.8596925288  MEMB      177             0.0000000000
     20457       177  SAPE      O32            24.2593786676      -32.1833692477      -15.1218515711  MEMB      177             0.0000000000
     20458       177  SAPE      C32            22.0320703862      -31.1301722044      -15.3429957004  MEMB      177             0.0000000000
     20459       177  SAPE      H2X            22.3629107464      -30.2623223923      -14.7333214570  MEMB      177             0.0000000000
     20460       177  SAPE      H2Y            21.5598482585      -31.8321291948      -14.6228680283  MEMB      177             0.0000000000
     20461       177  SAPE      C23            20.9086180627      -35.7460906785      -15.7581048126  MEMB      177             0.0000000000
     20462       177  SAPE      H3R            20.3518991991      -34.7847518299      -15.7435154457  MEMB      177             0.0000000000
     20463       177  SAPE      H3S            21.9149342407      -35.5847329883      -15.3158239785  MEMB      177             0.0000000000
     20464       177  SAPE      C24            20.2191885229      -36.7404923256      -14.8521383108  MEMB      177             0.0000000000
     20465       177  SAPE      H4R            20.8332465821      -37.6656397463      -14.8153160648  MEMB      177             0.0000000000
     20466       177  SAPE      H4S            19.4032643798      -37.1723168311      -15.4702938568  MEMB      177             0.0000000000
     20467       177  SAPE      C25            19.7599982820      -36.3946865025      -13.4433185008  MEMB      177             0.0000000000
     20468       177  SAPE      H5R            18.8764132564      -36.9795960844      -13.1480931418  MEMB      177             0.0000000000
     20469       177  SAPE      C26            20.1696117996      -35.3598259778      -12.7099759989  MEMB      177             0.0000000000
     20470       177  SAPE      H6R            19.6334761364      -35.2094124907      -11.7613277341  MEMB      177             0.0000000000
     20471       177  SAPE      C27            21.2456418832      -34.2154569438      -12.9616669223  MEMB      177             0.0000000000
     20472       177  SAPE      H7R            20.9562304442      -33.3040942240      -12.3959991736  MEMB      177             0.0000000000
     20473       177  SAPE      H7S            21.1971760698      -33.8754779552      -14.0182590203  MEMB      177             0.0000000000
     20474       177  SAPE      C28            22.5637230376      -34.7213305697      -12.5548303680  MEMB      177             0.0000000000
     20475       177  SAPE      H8R            22.8106409182      -35.7381896545      -12.8939898608  MEMB      177             0.0000000000
     20476       177  SAPE      C29            23.4384598769      -34.0812725960      -11.7919201202  MEMB      177             0.0000000000
     20477       177  SAPE      H9R            24.3515780326      -34.6040522069      -11.4711149741  MEMB      177             0.0000000000
     20478       177  SAPE      C210           23.3493104243      -32.7991798800      -11.1148710349  MEMB      177             0.0000000000
     20479       177  SAPE      H10R           22.8282158605      -32.0372752519      -11.7331618533  MEMB      177             0.0000000000
     20480       177  SAPE      H10S           24.3970101251      -32.4320357426      -11.1578995067  MEMB      177             0.0000000000
     20481       177  SAPE      C211           22.9562634909      -32.8185706366       -9.6254832287  MEMB      177             0.0000000000
     20482       177  SAPE      H11R           21.8672447630      -32.8786641894       -9.4825603362  MEMB      177             0.0000000000
     20483       177  SAPE      C212           23.7418235181      -32.9128496040       -8.4870815098  MEMB      177             0.0000000000
     20484       177  SAPE      H12R           23.2417899299      -32.8265263906       -7.5111129463  MEMB      177             0.0000000000
     20485       177  SAPE      C213           25.2614711826      -32.9517050913       -8.4810365925  MEMB      177             0.0000000000
     20486       177  SAPE      H13R           25.6282907471      -32.1762297654       -7.7750597884  MEMB      177             0.0000000000
     20487       177  SAPE      H13S           25.6142048796      -32.5983327874       -9.4735225389  MEMB      177             0.0000000000
     20488       177  SAPE      C214           25.7036489718      -34.3710624543       -8.3250522900  MEMB      177             0.0000000000
     20489       177  SAPE      H14R           26.1197176795      -34.8850103303       -9.2041116866  MEMB      177             0.0000000000
     20490       177  SAPE      C215           25.6542160921      -35.0585226334       -7.1625052324  MEMB      177             0.0000000000
     20491       177  SAPE      H15R           26.0970774201      -36.0641022722       -7.1107067355  MEMB      177             0.0000000000
     20492       177  SAPE      C216           25.1133752363      -34.6048099232       -5.7949462574  MEMB      177             0.0000000000
     20493       177  SAPE      H16R           24.9205922363      -33.5110497807       -5.8240173092  MEMB      177             0.0000000000
     20494       177  SAPE      H16S           25.8416335708      -34.8324451350       -4.9873931206  MEMB      177             0.0000000000
     20495       177  SAPE      C217           23.8108886878      -35.2298202307       -5.3221871022  MEMB      177             0.0000000000
     20496       177  SAPE      H17R           23.8826532168      -36.3210573807       -5.5180755248  MEMB      177             0.0000000000
     20497       177  SAPE      H17S           22.9444632295      -34.8611202674       -5.9118386411  MEMB      177             0.0000000000
     20498       177  SAPE      C218           23.5774485328      -34.9538616100       -3.8356476052  MEMB      177             0.0000000000
     20499       177  SAPE      H18R           24.2968861820      -35.3965265122       -3.1139988377  MEMB      177             0.0000000000
     20500       177  SAPE      H18S           22.6097270431      -35.4617226133       -3.6358647032  MEMB      177             0.0000000000
     20501       177  SAPE      C219           23.4050043357      -33.4604361185       -3.5854501903  MEMB      177             0.0000000000
     20502       177  SAPE      H19R           22.8013384858      -32.9306737522       -4.3530833483  MEMB      177             0.0000000000
     20503       177  SAPE      H19S           24.4262499665      -33.0238803201       -3.5572099105  MEMB      177             0.0000000000
     20504       177  SAPE      C220           22.9439697576      -33.2047875422       -2.1599183592  MEMB      177             0.0000000000
     20505       177  SAPE      H20R           22.6524118989      -32.1585668965       -1.9259576728  MEMB      177             0.0000000000
     20506       177  SAPE      H20S           23.5948198725      -33.6499218654       -1.3772495209  MEMB      177             0.0000000000
     20507       177  SAPE      H20T           22.1044564948      -33.8667604110       -1.8577078009  MEMB      177             0.0000000000
     20508       177  SAPE      C33            21.0378250113      -30.7140808837      -16.4456722743  MEMB      177             0.0000000000
     20509       177  SAPE      H3X            20.6711222946      -31.6279848306      -16.9600938346  MEMB      177             0.0000000000
     20510       177  SAPE      H3Y            21.5880060010      -30.1879682614      -17.2548864988  MEMB      177             0.0000000000
     20511       177  SAPE      C34            19.7888701952      -29.8658473507      -16.0040574977  MEMB      177             0.0000000000
     20512       177  SAPE      H4X            19.1175702899      -29.8076308570      -16.8873967470  MEMB      177             0.0000000000
     20513       177  SAPE      H4Y            19.9832190572      -28.8297023406      -15.6534113575  MEMB      177             0.0000000000
     20514       177  SAPE      C35            18.9744261435      -30.6097860458      -15.0108170551  MEMB      177             0.0000000000
     20515       177  SAPE      H5X            19.6149113475      -30.8490921277      -14.1351272424  MEMB      177             0.0000000000
     20516       177  SAPE      H5Y            18.6485836397      -31.5700736733      -15.4646842851  MEMB      177             0.0000000000
     20517       177  SAPE      C36            17.7858597269      -29.8601227281      -14.4527314321  MEMB      177             0.0000000000
     20518       177  SAPE      H6X            17.1301983582      -29.4856498209      -15.2677153579  MEMB      177             0.0000000000
     20519       177  SAPE      H6Y            18.1114733609      -29.0666261759      -13.7465724281  MEMB      177             0.0000000000
     20520       177  SAPE      C37            16.9503265667      -30.8206305887      -13.5724263667  MEMB      177             0.0000000000
     20521       177  SAPE      H7X            16.5708008174      -31.6577510415      -14.1965342072  MEMB      177             0.0000000000
     20522       177  SAPE      H7Y            16.0888706873      -30.2426219473      -13.1747833359  MEMB      177             0.0000000000
     20523       177  SAPE      C38            17.6301469259      -31.3386540163      -12.2651611895  MEMB      177             0.0000000000
     20524       177  SAPE      H8X            18.2908559129      -30.5676988533      -11.8141481821  MEMB      177             0.0000000000
     20525       177  SAPE      H8Y            18.3382317543      -32.1689980587      -12.4736447281  MEMB      177             0.0000000000
     20526       177  SAPE      C39            16.6016583495      -31.7784741098      -11.2361475650  MEMB      177             0.0000000000
     20527       177  SAPE      H9X            15.8580090047      -32.4128493836      -11.7642332318  MEMB      177             0.0000000000
     20528       177  SAPE      H9Y            15.9957025374      -30.8854980448      -10.9720789171  MEMB      177             0.0000000000
     20529       177  SAPE      C310           17.2193292438      -32.4016739202       -9.9337416083  MEMB      177             0.0000000000
     20530       177  SAPE      H10X           17.8879867653      -33.2847589322      -10.0196413099  MEMB      177             0.0000000000
     20531       177  SAPE      H10Y           16.2539163938      -32.6258298017       -9.4316927281  MEMB      177             0.0000000000
     20532       177  SAPE      C311           18.0496954564      -31.4744371055       -9.0880093597  MEMB      177             0.0000000000
     20533       177  SAPE      H11X           17.4823828727      -30.5228314207       -9.0047984718  MEMB      177             0.0000000000
     20534       177  SAPE      H11Y           19.0878329003      -31.3726094726       -9.4703997524  MEMB      177             0.0000000000
     20535       177  SAPE      C312           18.3389391059      -32.0160643810       -7.6754825983  MEMB      177             0.0000000000
     20536       177  SAPE      H12X           17.6700214214      -32.8760900171       -7.4581666662  MEMB      177             0.0000000000
     20537       177  SAPE      H12Y           18.3080524631      -31.2013530766       -6.9207552855  MEMB      177             0.0000000000
     20538       177  SAPE      C313           19.7028406834      -32.7608332507       -7.4526604644  MEMB      177             0.0000000000
     20539       177  SAPE      H13X           20.4850612307      -32.0951275792       -7.8760847175  MEMB      177             0.0000000000
     20540       177  SAPE      H13Y           19.5811501765      -33.6242805115       -8.1411164136  MEMB      177             0.0000000000
     20541       177  SAPE      C314           19.8489289233      -33.1797422933       -5.9695176751  MEMB      177             0.0000000000
     20542       177  SAPE      H14X           19.9565845847      -32.2385597456       -5.3890808654  MEMB      177             0.0000000000
     20543       177  SAPE      H14Y           20.7935843529      -33.7643001668       -5.9849914678  MEMB      177             0.0000000000
     20544       177  SAPE      C315           18.6205079179      -33.9412644525       -5.4256190074  MEMB      177             0.0000000000
     20545       177  SAPE      H15X           18.3054284498      -34.8458697472       -5.9884110534  MEMB      177             0.0000000000
     20546       177  SAPE      H15Y           17.6928187937      -33.3434391931       -5.5533611394  MEMB      177             0.0000000000
     20547       177  SAPE      C316           18.8744540217      -34.3730693920       -3.9385611283  MEMB      177             0.0000000000
     20548       177  SAPE      H16X           19.0938405454      -33.4410708128       -3.3750288978  MEMB      177             0.0000000000
     20549       177  SAPE      H16Y           19.6520102948      -35.1597731028       -4.0426021696  MEMB      177             0.0000000000
     20550       177  SAPE      C317           17.5863442941      -34.9753450534       -3.3647409707  MEMB      177             0.0000000000
     20551       177  SAPE      H17X           17.0133268437      -35.4878633825       -4.1667993082  MEMB      177             0.0000000000
     20552       177  SAPE      H17Y           16.9565625173      -34.1125163197       -3.0594175745  MEMB      177             0.0000000000
     20553       177  SAPE      C318           17.8249138027      -36.0035718263       -2.2712759232  MEMB      177             0.0000000000
     20554       177  SAPE      H18X           18.5005984187      -35.5247575117       -1.5306636682  MEMB      177             0.0000000000
     20555       177  SAPE      H18Y           18.3037511476      -36.9660088812       -2.5519016259  MEMB      177             0.0000000000
     20556       177  SAPE      H18Z           16.8813503168      -36.2621445686       -1.7448266429  MEMB      177             0.0000000000
     20557       178  SLPC      N              30.2439311835       21.1592009209      -18.1665843458  MEMB      178             0.0000000000
     20558       178  SLPC      C13            31.0450483367       21.1987211018      -19.3652330744  MEMB      178             0.0000000000
     20559       178  SLPC      H13A           31.8436797568       21.8901862462      -19.1405920175  MEMB      178             0.0000000000
     20560       178  SLPC      H13B           31.4906476969       20.2231604343      -19.4922085617  MEMB      178             0.0000000000
     20561       178  SLPC      H13C           30.5421051784       21.4697624179      -20.2817400976  MEMB      178             0.0000000000
     20562       178  SLPC      C14            29.1188750961       20.1291895735      -18.3553702706  MEMB      178             0.0000000000
     20563       178  SLPC      H14A           28.6048248589       20.2074468297      -17.4087825188  MEMB      178             0.0000000000
     20564       178  SLPC      H14B           28.4927777661       20.4239709953      -19.1845301502  MEMB      178             0.0000000000
     20565       178  SLPC      H14C           29.5007137097       19.1325261312      -18.5204802934  MEMB      178             0.0000000000
     20566       178  SLPC      C15            29.5746344188       22.4825683137      -17.8581190553  MEMB      178             0.0000000000
     20567       178  SLPC      H15A           28.8184455150       22.7880858827      -18.5661001985  MEMB      178             0.0000000000
     20568       178  SLPC      H15B           29.1203468259       22.2182611017      -16.9146337703  MEMB      178             0.0000000000
     20569       178  SLPC      H15C           30.3402525620       23.2182606425      -17.6606707600  MEMB      178             0.0000000000
     20570       178  SLPC      C12            30.8986298170       20.6884808819      -16.8345902777  MEMB      178             0.0000000000
     20571       178  SLPC      H12A           31.0377833416       19.6264723646      -16.9730609426  MEMB      178             0.0000000000
     20572       178  SLPC      H12B           30.2904627902       20.7997702134      -15.9490692531  MEMB      178             0.0000000000
     20573       178  SLPC      C11            32.2759681179       21.3568314408      -16.5041809820  MEMB      178             0.0000000000
     20574       178  SLPC      H11A           32.9134742959       21.1889733618      -17.3984575203  MEMB      178             0.0000000000
     20575       178  SLPC      H11B           32.7681958332       20.7270272409      -15.7325726204  MEMB      178             0.0000000000
     20576       178  SLPC      P              33.5399906698       23.5967527334      -16.0029630773  MEMB      178             0.0000000000
     20577       178  SLPC      O13            34.4713617853       22.8712031782      -15.0299343444  MEMB      178             0.0000000000
     20578       178  SLPC      O14            33.9934139108       23.8288268620      -17.4353446733  MEMB      178             0.0000000000
     20579       178  SLPC      O12            32.1948466593       22.8022346965      -16.0784248467  MEMB      178             0.0000000000
     20580       178  SLPC      O11            33.1590149958       24.9616034450      -15.3692550851  MEMB      178             0.0000000000
     20581       178  SLPC      C1             34.0284957564       26.0877512075      -15.3808087171  MEMB      178             0.0000000000
     20582       178  SLPC      HA             34.9807854487       25.7512976648      -14.9179214205  MEMB      178             0.0000000000
     20583       178  SLPC      HB             34.1336230835       26.4556804622      -16.4238319262  MEMB      178             0.0000000000
     20584       178  SLPC      C2             33.5702468776       27.3262850127      -14.5394427905  MEMB      178             0.0000000000
     20585       178  SLPC      HS             34.4335657033       27.9018589467      -14.1423078996  MEMB      178             0.0000000000
     20586       178  SLPC      O21            32.9032852625       26.7580250817      -13.3668474912  MEMB      178             0.0000000000
     20587       178  SLPC      C21            32.5888270717       27.5308990297      -12.4087992366  MEMB      178             0.0000000000
     20588       178  SLPC      O22            32.7631774509       28.7332227094      -12.3923190618  MEMB      178             0.0000000000
     20589       178  SLPC      C22            32.0149957009       26.7861544271      -11.2122483479  MEMB      178             0.0000000000
     20590       178  SLPC      H2R            31.8720772972       25.6955284521      -11.3685501503  MEMB      178             0.0000000000
     20591       178  SLPC      H2S            32.8402138367       26.8306372232      -10.4697139189  MEMB      178             0.0000000000
     20592       178  SLPC      C3             32.5575388079       28.0566497036      -15.3925453805  MEMB      178             0.0000000000
     20593       178  SLPC      HX             33.1760714226       28.5707895843      -16.1589647656  MEMB      178             0.0000000000
     20594       178  SLPC      HY             32.0606541383       28.8908097152      -14.8525417733  MEMB      178             0.0000000000
     20595       178  SLPC      O31            31.6058927618       27.1630883768      -16.0123615286  MEMB      178             0.0000000000
     20596       178  SLPC      C31            30.4440947770       27.1398364544      -15.5020639138  MEMB      178             0.0000000000
     20597       178  SLPC      O32            29.9091906223       27.8658305914      -14.6773429441  MEMB      178             0.0000000000
     20598       178  SLPC      C32            29.6905464354       25.9211501867      -16.1377369283  MEMB      178             0.0000000000
     20599       178  SLPC      H2X            30.4278448794       25.1234192757      -16.3708403230  MEMB      178             0.0000000000
     20600       178  SLPC      H2Y            29.2187668739       26.3000307052      -17.0695065878  MEMB      178             0.0000000000
     20601       178  SLPC      C23            30.8381262783       27.6231610233      -10.6616884041  MEMB      178             0.0000000000
     20602       178  SLPC      H3R            30.0883843244       27.6281471535      -11.4815561199  MEMB      178             0.0000000000
     20603       178  SLPC      H3S            30.9144887651       28.7313823608      -10.6433826326  MEMB      178             0.0000000000
     20604       178  SLPC      C24            30.0400383624       27.2021936959       -9.4079312119  MEMB      178             0.0000000000
     20605       178  SLPC      H4R            29.5598437791       26.2186328556       -9.5985674916  MEMB      178             0.0000000000
     20606       178  SLPC      H4S            29.1373504636       27.8290733332       -9.2451517762  MEMB      178             0.0000000000
     20607       178  SLPC      C25            30.8310320656       27.1350662859       -8.0881968769  MEMB      178             0.0000000000
     20608       178  SLPC      H5R            31.6207285811       26.3612573222       -8.1973768172  MEMB      178             0.0000000000
     20609       178  SLPC      H5S            30.0582261487       27.0954281306       -7.2910011296  MEMB      178             0.0000000000
     20610       178  SLPC      C26            31.5237177510       28.4645626091       -7.7299559707  MEMB      178             0.0000000000
     20611       178  SLPC      H6R            32.3716575721       28.6195487048       -8.4308825562  MEMB      178             0.0000000000
     20612       178  SLPC      H6S            31.9414714078       28.3312833973       -6.7091519514  MEMB      178             0.0000000000
     20613       178  SLPC      C27            30.5655123458       29.6643585926       -7.5536475195  MEMB      178             0.0000000000
     20614       178  SLPC      H7R            29.6705074412       29.2296481077       -7.0593663206  MEMB      178             0.0000000000
     20615       178  SLPC      H7S            30.1765812874       30.0436102497       -8.5227824798  MEMB      178             0.0000000000
     20616       178  SLPC      C28            31.1008958790       30.7249542538       -6.4931473702  MEMB      178             0.0000000000
     20617       178  SLPC      H8R            32.0560792483       31.2259090578       -6.7595860108  MEMB      178             0.0000000000
     20618       178  SLPC      H8S            31.2499502923       30.1945212483       -5.5283959516  MEMB      178             0.0000000000
     20619       178  SLPC      C29            30.0577054558       31.7960613184       -6.3722032536  MEMB      178             0.0000000000
     20620       178  SLPC      H9R            30.2734639527       32.6454188691       -7.0370646290  MEMB      178             0.0000000000
     20621       178  SLPC      C210           28.9769074681       31.8376084328       -5.5701023178  MEMB      178             0.0000000000
     20622       178  SLPC      H10R           28.4312636319       32.7916628873       -5.5247865576  MEMB      178             0.0000000000
     20623       178  SLPC      C211           28.4311546569       30.8253979406       -4.6020840143  MEMB      178             0.0000000000
     20624       178  SLPC      H11R           29.0385432172       29.9061822070       -4.4591054063  MEMB      178             0.0000000000
     20625       178  SLPC      H11S           27.4795542412       30.3994858661       -4.9859807368  MEMB      178             0.0000000000
     20626       178  SLPC      C212           28.0061645520       31.5444772559       -3.3120283969  MEMB      178             0.0000000000
     20627       178  SLPC      H12R           27.6504273734       32.5796734736       -3.4207465408  MEMB      178             0.0000000000
     20628       178  SLPC      C213           28.1260522145       31.0768647468       -2.0401069190  MEMB      178             0.0000000000
     20629       178  SLPC      H13R           27.7544450394       31.7443153448       -1.2486397910  MEMB      178             0.0000000000
     20630       178  SLPC      C214           28.6953276876       29.8076847151       -1.5115678550  MEMB      178             0.0000000000
     20631       178  SLPC      H14R           28.3500491067       29.0491818322       -2.2462640446  MEMB      178             0.0000000000
     20632       178  SLPC      H14S           28.3671103079       29.6135518470       -0.4680618761  MEMB      178             0.0000000000
     20633       178  SLPC      C215           30.2200102438       29.6055119241       -1.6564196305  MEMB      178             0.0000000000
     20634       178  SLPC      H15R           30.3293384868       29.4516846746       -2.7512734334  MEMB      178             0.0000000000
     20635       178  SLPC      H15S           30.4269676525       28.6649555099       -1.1024853528  MEMB      178             0.0000000000
     20636       178  SLPC      C216           31.1183752449       30.7908354272       -1.2786970888  MEMB      178             0.0000000000
     20637       178  SLPC      H16R           30.8191331749       31.1675744291       -0.2772773243  MEMB      178             0.0000000000
     20638       178  SLPC      H16S           31.0486545718       31.6198915281       -2.0149894413  MEMB      178             0.0000000000
     20639       178  SLPC      C217           32.5499492775       30.2639616329       -1.3017472649  MEMB      178             0.0000000000
     20640       178  SLPC      H17R           32.6529285665       29.5593891362       -0.4489318373  MEMB      178             0.0000000000
     20641       178  SLPC      H17S           33.2654429530       31.1065203677       -1.1900117225  MEMB      178             0.0000000000
     20642       178  SLPC      C218           32.9494769433       29.6110134558       -2.5993434863  MEMB      178             0.0000000000
     20643       178  SLPC      H18R           32.4678142801       30.2066207585       -3.4040635571  MEMB      178             0.0000000000
     20644       178  SLPC      H18S           32.7056382568       28.5288964534       -2.6616900266  MEMB      178             0.0000000000
     20645       178  SLPC      H18T           34.0378138052       29.5505415777       -2.8142546398  MEMB      178             0.0000000000
     20646       178  SLPC      C33            28.6589669046       25.3929108936      -15.1846556034  MEMB      178             0.0000000000
     20647       178  SLPC      H3X            28.1113852805       24.6678320378      -15.8239803654  MEMB      178             0.0000000000
     20648       178  SLPC      H3Y            27.9072299248       26.1942939033      -15.0203452811  MEMB      178             0.0000000000
     20649       178  SLPC      C34            29.1954092511       24.6150979113      -13.8964090016  MEMB      178             0.0000000000
     20650       178  SLPC      H4X            28.6287514026       25.0201897877      -13.0308916873  MEMB      178             0.0000000000
     20651       178  SLPC      H4Y            30.2796787687       24.8492700850      -13.8344086808  MEMB      178             0.0000000000
     20652       178  SLPC      C35            29.1352280652       23.0995278782      -13.8705324239  MEMB      178             0.0000000000
     20653       178  SLPC      H5X            29.4975613144       22.8461192741      -14.8897574605  MEMB      178             0.0000000000
     20654       178  SLPC      H5Y            28.0605505911       22.8347021198      -13.9667454195  MEMB      178             0.0000000000
     20655       178  SLPC      C36            29.7114271765       22.4321663050      -12.6120628985  MEMB      178             0.0000000000
     20656       178  SLPC      H6X            29.5708421167       21.3413762877      -12.4547918486  MEMB      178             0.0000000000
     20657       178  SLPC      H6Y            29.2390159575       22.8912979252      -11.7174418073  MEMB      178             0.0000000000
     20658       178  SLPC      C37            31.2780128394       22.6028364911      -12.4296105011  MEMB      178             0.0000000000
     20659       178  SLPC      H7X            31.6475503757       23.6488001441      -12.3685940584  MEMB      178             0.0000000000
     20660       178  SLPC      H7Y            31.8197156533       22.1835473860      -13.3042964735  MEMB      178             0.0000000000
     20661       178  SLPC      C38            31.8147150597       21.6854716163      -11.2517946124  MEMB      178             0.0000000000
     20662       178  SLPC      H8X            31.3741654502       20.6720449585      -11.3666988852  MEMB      178             0.0000000000
     20663       178  SLPC      H8Y            31.5640282459       22.1489119615      -10.2736837567  MEMB      178             0.0000000000
     20664       178  SLPC      C39            33.3355854135       21.6360045404      -11.3447152800  MEMB      178             0.0000000000
     20665       178  SLPC      H9X            33.6567440602       21.1439285340      -12.2876039402  MEMB      178             0.0000000000
     20666       178  SLPC      H9Y            33.6650065924       20.8630277278      -10.6178657687  MEMB      178             0.0000000000
     20667       178  SLPC      C310           34.0711511395       22.9562957786      -11.0670223285  MEMB      178             0.0000000000
     20668       178  SLPC      H10X           33.7543634084       23.6518269979      -11.8733737708  MEMB      178             0.0000000000
     20669       178  SLPC      H10Y           35.1489505600       22.7205986427      -11.1978512475  MEMB      178             0.0000000000
     20670       178  SLPC      C311           33.8151845991       23.4715049319       -9.6248583218  MEMB      178             0.0000000000
     20671       178  SLPC      H11X           33.6099074090       22.5807326538       -8.9934258025  MEMB      178             0.0000000000
     20672       178  SLPC      H11Y           32.8677093752       24.0429392710       -9.7252292974  MEMB      178             0.0000000000
     20673       178  SLPC      C312           34.8455782544       24.4213089088       -9.0392518031  MEMB      178             0.0000000000
     20674       178  SLPC      H12X           35.1601291356       25.2942265513       -9.6503112704  MEMB      178             0.0000000000
     20675       178  SLPC      H12Y           35.7603868068       23.7955510244       -8.9626136810  MEMB      178             0.0000000000
     20676       178  SLPC      C313           34.4875986672       24.7788745455       -7.5709597598  MEMB      178             0.0000000000
     20677       178  SLPC      H13X           33.4229860200       25.0860417854       -7.4899080128  MEMB      178             0.0000000000
     20678       178  SLPC      H13Y           35.0368684618       25.6970601668       -7.2716953271  MEMB      178             0.0000000000
     20679       178  SLPC      C314           34.4282203154       23.5399821903       -6.6406458814  MEMB      178             0.0000000000
     20680       178  SLPC      H14X           35.4858266062       23.2044576619       -6.5839616793  MEMB      178             0.0000000000
     20681       178  SLPC      H14Y           33.8083682003       22.7550313946       -7.1243361843  MEMB      178             0.0000000000
     20682       178  SLPC      C315           33.8625814722       23.8859770285       -5.2568321735  MEMB      178             0.0000000000
     20683       178  SLPC      H15X           34.1286450316       23.0659636449       -4.5560407388  MEMB      178             0.0000000000
     20684       178  SLPC      H15Y           32.7530399284       23.8365153254       -5.2849776996  MEMB      178             0.0000000000
     20685       178  SLPC      C316           34.3543537298       25.2843407192       -4.7492890633  MEMB      178             0.0000000000
     20686       178  SLPC      H16X           33.9870349649       26.1753775046       -5.3019655436  MEMB      178             0.0000000000
     20687       178  SLPC      H16Y           35.4586551422       25.2513214011       -4.8665456535  MEMB      178             0.0000000000
     20688       178  SLPC      C317           34.1316202771       25.5947885355       -3.3092770187  MEMB      178             0.0000000000
     20689       178  SLPC      H17X           33.7334340225       24.6935935128       -2.7958414587  MEMB      178             0.0000000000
     20690       178  SLPC      H17Y           33.2769569020       26.2973825202       -3.2081213104  MEMB      178             0.0000000000
     20691       178  SLPC      C318           35.3327451118       26.2024929899       -2.5524937565  MEMB      178             0.0000000000
     20692       178  SLPC      H18X           36.2334659251       25.5553282527       -2.6173044931  MEMB      178             0.0000000000
     20693       178  SLPC      H18Y           35.1142987716       26.4331554034       -1.4878825651  MEMB      178             0.0000000000
     20694       178  SLPC      H18Z           35.4561724098       27.2283268486       -2.9608463623  MEMB      178             0.0000000000
     20695       179  CHL1      C3             21.7624809611       32.3502877222      -17.2827000000  MEMB      179             0.0000000000
     20696       179  CHL1      H3             22.8203535719       32.5853951198      -17.0378800000  MEMB      179             0.0000000000
     20697       179  CHL1      O3             21.7277090389       32.1619310778      -18.7173000000  MEMB      179             0.0000000000
     20698       179  CHL1      H3'            22.0504273241       31.2820264283      -18.9252000000  MEMB      179             0.0000000000
     20699       179  CHL1      C4             21.3567081342       31.0378976466      -16.6718800000  MEMB      179             0.0000000000
     20700       179  CHL1      H4A            20.3119429363       30.8412372233      -16.9945300000  MEMB      179             0.0000000000
     20701       179  CHL1      H4B            21.9585391981       30.1866023742      -17.0558100000  MEMB      179             0.0000000000
     20702       179  CHL1      C5             21.4331856754       31.0367697320      -15.1307100000  MEMB      179             0.0000000000
     20703       179  CHL1      C6             22.2711064542       30.1660649228      -14.5471100000  MEMB      179             0.0000000000
     20704       179  CHL1      H6             22.8504947727       29.5181250244      -15.2212800000  MEMB      179             0.0000000000
     20705       179  CHL1      C7             22.5136979751       30.2813513314      -13.0723500000  MEMB      179             0.0000000000
     20706       179  CHL1      H7A            22.5645217270       29.2761224218      -12.6019700000  MEMB      179             0.0000000000
     20707       179  CHL1      H7B            23.4515916646       30.8567892780      -12.9189700000  MEMB      179             0.0000000000
     20708       179  CHL1      C8             21.3982590064       31.0327607681      -12.2819500000  MEMB      179             0.0000000000
     20709       179  CHL1      H8             20.6011979585       30.2588439393      -12.2893700000  MEMB      179             0.0000000000
     20710       179  CHL1      C14            21.8329604871       31.4318028444      -10.9012400000  MEMB      179             0.0000000000
     20711       179  CHL1      H14            22.4220823500       32.3649227774      -11.0298600000  MEMB      179             0.0000000000
     20712       179  CHL1      C15            22.6830552987       30.5093425145      -10.1034100000  MEMB      179             0.0000000000
     20713       179  CHL1      H15A           22.2723710164       29.4778249076      -10.0626900000  MEMB      179             0.0000000000
     20714       179  CHL1      H15B           23.7209048672       30.5052066894      -10.4998300000  MEMB      179             0.0000000000
     20715       179  CHL1      C16            22.6269356369       31.0787301504       -8.6836400000  MEMB      179             0.0000000000
     20716       179  CHL1      H16A           22.5627200073       30.2620996002       -7.9331100000  MEMB      179             0.0000000000
     20717       179  CHL1      H16B           23.5308148899       31.6254172691       -8.3394600000  MEMB      179             0.0000000000
     20718       179  CHL1      C17            21.4413503616       32.1248451711       -8.7592400000  MEMB      179             0.0000000000
     20719       179  CHL1      H17            21.8907884140       33.1207870769       -8.9603200000  MEMB      179             0.0000000000
     20720       179  CHL1      C13            20.7129669468       31.9259591801      -10.0451500000  MEMB      179             0.0000000000
     20721       179  CHL1      C18            19.5817809058       30.8881112728       -9.8328800000  MEMB      179             0.0000000000
     20722       179  CHL1      H18A           19.9724013512       29.9408601755       -9.4034100000  MEMB      179             0.0000000000
     20723       179  CHL1      H18B           18.8502437995       31.3006933880       -9.1055800000  MEMB      179             0.0000000000
     20724       179  CHL1      H18C           18.9221946172       30.6242528675      -10.6870700000  MEMB      179             0.0000000000
     20725       179  CHL1      C12            20.1934125902       33.2915594822      -10.5842300000  MEMB      179             0.0000000000
     20726       179  CHL1      H12A           19.3181845451       33.6721647210      -10.0155300000  MEMB      179             0.0000000000
     20727       179  CHL1      H12B           20.9810258720       34.0743233341      -10.6199600000  MEMB      179             0.0000000000
     20728       179  CHL1      C11            19.7799269989       33.0281873872      -12.0684900000  MEMB      179             0.0000000000
     20729       179  CHL1      H11A           18.9115341870       32.3371029617      -12.0172300000  MEMB      179             0.0000000000
     20730       179  CHL1      H11B           19.3972533775       34.0063446018      -12.4305500000  MEMB      179             0.0000000000
     20731       179  CHL1      C9             20.8815680302       32.2740938631      -12.9658700000  MEMB      179             0.0000000000
     20732       179  CHL1      H9             21.7060686565       33.0162320382      -12.9047400000  MEMB      179             0.0000000000
     20733       179  CHL1      C10            20.5250444072       32.0646768038      -14.4377600000  MEMB      179             0.0000000000
     20734       179  CHL1      C19            19.0410788582       31.6680797553      -14.5493600000  MEMB      179             0.0000000000
     20735       179  CHL1      H19A           18.2811557712       32.4242187103      -14.2576200000  MEMB      179             0.0000000000
     20736       179  CHL1      H19B           18.9687937396       31.5350905823      -15.6500000000  MEMB      179             0.0000000000
     20737       179  CHL1      H19C           18.9328713829       30.7198795064      -13.9805900000  MEMB      179             0.0000000000
     20738       179  CHL1      C1             20.8234502943       33.4139564041      -15.1835300000  MEMB      179             0.0000000000
     20739       179  CHL1      H1A            20.0723051463       34.1420005768      -14.8092700000  MEMB      179             0.0000000000
     20740       179  CHL1      H1B            21.7980412482       33.7987127603      -14.8141400000  MEMB      179             0.0000000000
     20741       179  CHL1      C2             20.8912620467       33.3933016335      -16.7411200000  MEMB      179             0.0000000000
     20742       179  CHL1      H2A            21.2638776196       34.3857849174      -17.0734800000  MEMB      179             0.0000000000
     20743       179  CHL1      H2B            19.8562089514       33.2809395516      -17.1289000000  MEMB      179             0.0000000000
     20744       179  CHL1      C20            20.6569378259       32.3396214183       -7.3636800000  MEMB      179             0.0000000000
     20745       179  CHL1      H20            19.7469875734       32.9590808553       -7.5139500000  MEMB      179             0.0000000000
     20746       179  CHL1      C21            21.6182590463       33.0621017444       -6.3956400000  MEMB      179             0.0000000000
     20747       179  CHL1      H21A           22.0171073705       33.8826315149       -7.0296500000  MEMB      179             0.0000000000
     20748       179  CHL1      H21B           22.4025669638       32.3819103670       -5.9999900000  MEMB      179             0.0000000000
     20749       179  CHL1      H21C           21.0978556075       33.6063796031       -5.5787900000  MEMB      179             0.0000000000
     20750       179  CHL1      C22            20.2059669663       30.9900271971       -6.6686300000  MEMB      179             0.0000000000
     20751       179  CHL1      H22A           19.4990385125       30.3479517960       -7.2363600000  MEMB      179             0.0000000000
     20752       179  CHL1      H22B           21.1381860118       30.3957259904       -6.5586400000  MEMB      179             0.0000000000
     20753       179  CHL1      C23            19.6703171847       31.0296026683       -5.2290400000  MEMB      179             0.0000000000
     20754       179  CHL1      H23A           19.7851892809       29.9945442751       -4.8420200000  MEMB      179             0.0000000000
     20755       179  CHL1      H23B           20.0561965131       31.7723368313       -4.4984500000  MEMB      179             0.0000000000
     20756       179  CHL1      C24            18.1294083914       31.1449563181       -5.1102300000  MEMB      179             0.0000000000
     20757       179  CHL1      H24A           17.6976879770       31.8434535166       -5.8585800000  MEMB      179             0.0000000000
     20758       179  CHL1      H24B           17.5530621227       30.2211085690       -5.3308700000  MEMB      179             0.0000000000
     20759       179  CHL1      C25            17.6382202984       31.7061906997       -3.7698700000  MEMB      179             0.0000000000
     20760       179  CHL1      H25            18.2296002430       32.6284042553       -3.5851200000  MEMB      179             0.0000000000
     20761       179  CHL1      C26            16.0714334234       31.9112460300       -3.7716400000  MEMB      179             0.0000000000
     20762       179  CHL1      H26A           15.7982348559       32.4650875775       -2.8480900000  MEMB      179             0.0000000000
     20763       179  CHL1      H26B           15.6768753857       32.3541582779       -4.7110400000  MEMB      179             0.0000000000
     20764       179  CHL1      H26C           15.6571583402       30.8810946401       -3.8101600000  MEMB      179             0.0000000000
     20765       179  CHL1      C27            17.9811132453       30.7186218895       -2.6541800000  MEMB      179             0.0000000000
     20766       179  CHL1      H27A           17.7386113934       31.1640266325       -1.6656800000  MEMB      179             0.0000000000
     20767       179  CHL1      H27B           17.2689060273       29.8689468238       -2.7258400000  MEMB      179             0.0000000000
     20768       179  CHL1      H27C           19.0365609440       30.3760519662       -2.7088100000  MEMB      179             0.0000000000
     20769       180  SAPE      N             -33.5537337060       21.1517237667      -22.7590380176  MEMB      180             0.0000000000
     20770       180  SAPE      HN1           -34.3143464595       21.3808512283      -23.4302821548  MEMB      180             0.0000000000
     20771       180  SAPE      HN2           -32.6123519539       21.2755914692      -23.1833693358  MEMB      180             0.0000000000
     20772       180  SAPE      HN3           -33.6385116699       20.1644952867      -22.4431382233  MEMB      180             0.0000000000
     20773       180  SAPE      C12           -33.7673681664       22.0145553119      -21.6224647018  MEMB      180             0.0000000000
     20774       180  SAPE      H12A          -34.7279812556       21.6381009434      -21.2103656703  MEMB      180             0.0000000000
     20775       180  SAPE      H12B          -33.8350046889       23.0260558116      -22.0770117994  MEMB      180             0.0000000000
     20776       180  SAPE      C11           -32.5563625570       22.0402765659      -20.6299771722  MEMB      180             0.0000000000
     20777       180  SAPE      H11A          -32.8453012721       22.7328166109      -19.8106946920  MEMB      180             0.0000000000
     20778       180  SAPE      H11B          -31.6135289992       22.3261175095      -21.1434757024  MEMB      180             0.0000000000
     20779       180  SAPE      P             -33.2524365678       20.1420723909      -18.9875043804  MEMB      180             0.0000000000
     20780       180  SAPE      O13           -34.5194159437       19.5657514032      -19.5304976446  MEMB      180             0.0000000000
     20781       180  SAPE      O14           -32.4319110070       19.1979740324      -18.1095168215  MEMB      180             0.0000000000
     20782       180  SAPE      O12           -32.4466378673       20.6950873122      -20.1854338714  MEMB      180             0.0000000000
     20783       180  SAPE      O11           -33.5944253828       21.4495728173      -18.1755673928  MEMB      180             0.0000000000
     20784       180  SAPE      C1            -34.5641994443       21.4606617753      -17.1554733553  MEMB      180             0.0000000000
     20785       180  SAPE      HA            -35.4568385614       22.0042163637      -17.5323881144  MEMB      180             0.0000000000
     20786       180  SAPE      HB            -34.8915595394       20.4420949555      -16.8560105102  MEMB      180             0.0000000000
     20787       180  SAPE      C2            -33.9853717709       22.3064808014      -15.9918523112  MEMB      180             0.0000000000
     20788       180  SAPE      HS            -33.1635711149       22.9492142352      -16.3737663547  MEMB      180             0.0000000000
     20789       180  SAPE      O21           -33.3869985017       21.3932513539      -15.0547384370  MEMB      180             0.0000000000
     20790       180  SAPE      C21           -32.5439600310       21.8736152352      -14.1654821373  MEMB      180             0.0000000000
     20791       180  SAPE      O22           -32.1020151943       22.9826050005      -13.9767556551  MEMB      180             0.0000000000
     20792       180  SAPE      C22           -32.5351743706       20.7221766339      -13.1435580876  MEMB      180             0.0000000000
     20793       180  SAPE      H2R           -33.4485708143       20.7870704274      -12.5144181212  MEMB      180             0.0000000000
     20794       180  SAPE      H2S           -32.6295904272       19.7408182772      -13.6557515418  MEMB      180             0.0000000000
     20795       180  SAPE      C3            -35.0642644721       23.2501944506      -15.3020576303  MEMB      180             0.0000000000
     20796       180  SAPE      HX            -35.5539553242       23.8473116346      -16.1007909222  MEMB      180             0.0000000000
     20797       180  SAPE      HY            -34.6171408658       24.0065198183      -14.6220774117  MEMB      180             0.0000000000
     20798       180  SAPE      O31           -36.0271194022       22.3045941688      -14.7394581039  MEMB      180             0.0000000000
     20799       180  SAPE      C31           -35.9367082551       21.9337082693      -13.5019734886  MEMB      180             0.0000000000
     20800       180  SAPE      O32           -35.3777322082       22.5933595353      -12.6141578207  MEMB      180             0.0000000000
     20801       180  SAPE      C32           -36.5580636882       20.5906642427      -13.3584672834  MEMB      180             0.0000000000
     20802       180  SAPE      H2X           -35.8755356929       19.7411257586      -13.5747104816  MEMB      180             0.0000000000
     20803       180  SAPE      H2Y           -37.3741655336       20.4319738457      -14.0954310367  MEMB      180             0.0000000000
     20804       180  SAPE      C23           -31.2582184958       20.7922506224      -12.2615123904  MEMB      180             0.0000000000
     20805       180  SAPE      H3R           -30.4536580279       21.0025444145      -12.9982485777  MEMB      180             0.0000000000
     20806       180  SAPE      H3S           -31.0404438850       19.7672351011      -11.8924078342  MEMB      180             0.0000000000
     20807       180  SAPE      C24           -31.3237284421       21.7630567106      -11.0903870874  MEMB      180             0.0000000000
     20808       180  SAPE      H4R           -32.2131766461       21.6532069678      -10.4337778995  MEMB      180             0.0000000000
     20809       180  SAPE      H4S           -31.2891769874       22.8518209323      -11.3088363516  MEMB      180             0.0000000000
     20810       180  SAPE      C25           -30.1685163519       21.3254216691      -10.2089532105  MEMB      180             0.0000000000
     20811       180  SAPE      H5R           -30.1811235715       20.2588434821       -9.9401557786  MEMB      180             0.0000000000
     20812       180  SAPE      C26           -29.1692472789       22.0822780820       -9.6307708525  MEMB      180             0.0000000000
     20813       180  SAPE      H6R           -28.3995036339       21.5599214540       -9.0437111614  MEMB      180             0.0000000000
     20814       180  SAPE      C27           -28.9758376595       23.6045269650       -9.6465672867  MEMB      180             0.0000000000
     20815       180  SAPE      H7R           -28.5114435907       23.8111904038      -10.6344686977  MEMB      180             0.0000000000
     20816       180  SAPE      H7S           -28.2566069633       24.0099883264       -8.9031768568  MEMB      180             0.0000000000
     20817       180  SAPE      C28           -30.2221734049       24.5346828022       -9.4038988936  MEMB      180             0.0000000000
     20818       180  SAPE      H8R           -30.1779649555       25.3866580325      -10.0982939885  MEMB      180             0.0000000000
     20819       180  SAPE      C29           -31.1326765451       24.4563709067       -8.4003908367  MEMB      180             0.0000000000
     20820       180  SAPE      H9R           -31.9637473381       25.1768181706       -8.4170219430  MEMB      180             0.0000000000
     20821       180  SAPE      C210          -31.1246834035       23.5232393562       -7.3082927177  MEMB      180             0.0000000000
     20822       180  SAPE      H10R          -31.4264108525       22.5186841899       -7.6745585024  MEMB      180             0.0000000000
     20823       180  SAPE      H10S          -32.0016332616       23.7357683415       -6.6601329760  MEMB      180             0.0000000000
     20824       180  SAPE      C211          -30.0368686824       23.5921286537       -6.2914611646  MEMB      180             0.0000000000
     20825       180  SAPE      H11R          -29.4482391182       24.5197554560       -6.3464506358  MEMB      180             0.0000000000
     20826       180  SAPE      C212          -29.6895004523       22.5668687232       -5.4601828495  MEMB      180             0.0000000000
     20827       180  SAPE      H12R          -28.7959047222       22.7024254551       -4.8331972009  MEMB      180             0.0000000000
     20828       180  SAPE      C213          -30.2847787937       21.1808523858       -5.3950621142  MEMB      180             0.0000000000
     20829       180  SAPE      H13R          -29.6505865568       20.6103542586       -6.1068572429  MEMB      180             0.0000000000
     20830       180  SAPE      H13S          -31.2952148412       21.3272617834       -5.8331309309  MEMB      180             0.0000000000
     20831       180  SAPE      C214          -30.2946646030       20.4417225772       -4.0858340908  MEMB      180             0.0000000000
     20832       180  SAPE      H14R          -29.4647224039       20.6601640806       -3.3977356367  MEMB      180             0.0000000000
     20833       180  SAPE      C215          -31.1485177047       19.5627990752       -3.5502767545  MEMB      180             0.0000000000
     20834       180  SAPE      H15R          -31.0136996807       19.0179447082       -2.6042532543  MEMB      180             0.0000000000
     20835       180  SAPE      C216          -32.4219246812       19.0434220464       -4.2110644202  MEMB      180             0.0000000000
     20836       180  SAPE      H16R          -32.2731580318       18.1870850234       -4.9030729273  MEMB      180             0.0000000000
     20837       180  SAPE      H16S          -33.0282279259       19.8118937582       -4.7365815740  MEMB      180             0.0000000000
     20838       180  SAPE      C217          -33.2721280521       18.4403258918       -3.0745273716  MEMB      180             0.0000000000
     20839       180  SAPE      H17R          -33.3486922635       19.1088719466       -2.1904996296  MEMB      180             0.0000000000
     20840       180  SAPE      H17S          -32.7610334550       17.5388083466       -2.6740655081  MEMB      180             0.0000000000
     20841       180  SAPE      C218          -34.6657231663       17.9572249310       -3.4007805327  MEMB      180             0.0000000000
     20842       180  SAPE      H18R          -35.1350279867       17.2782313714       -2.6571142523  MEMB      180             0.0000000000
     20843       180  SAPE      H18S          -34.4881240404       17.4493738006       -4.3728241140  MEMB      180             0.0000000000
     20844       180  SAPE      C219          -35.6526473899       19.1062992992       -3.6224426802  MEMB      180             0.0000000000
     20845       180  SAPE      H19R          -36.5018665763       18.8077748399       -4.2736199807  MEMB      180             0.0000000000
     20846       180  SAPE      H19S          -35.1624615987       19.8492616492       -4.2873085894  MEMB      180             0.0000000000
     20847       180  SAPE      C220          -36.1945289751       19.8058824972       -2.3654551664  MEMB      180             0.0000000000
     20848       180  SAPE      H20R          -35.3820680108       20.1250701425       -1.6781785002  MEMB      180             0.0000000000
     20849       180  SAPE      H20S          -36.7412437205       19.1123663492       -1.6913189442  MEMB      180             0.0000000000
     20850       180  SAPE      H20T          -36.8926675931       20.6444184095       -2.5746938715  MEMB      180             0.0000000000
     20851       180  SAPE      C33           -37.0968310053       20.4581607385      -11.9768538614  MEMB      180             0.0000000000
     20852       180  SAPE      H3X           -37.8411268743       19.6333658428      -11.9692286086  MEMB      180             0.0000000000
     20853       180  SAPE      H3Y           -37.5530452414       21.3798319509      -11.5564833069  MEMB      180             0.0000000000
     20854       180  SAPE      C34           -36.0122876198       19.9050827499      -11.0106836995  MEMB      180             0.0000000000
     20855       180  SAPE      H4X           -35.1635342070       20.6050685671      -10.8558985186  MEMB      180             0.0000000000
     20856       180  SAPE      H4Y           -35.6262993553       18.9632807127      -11.4560417714  MEMB      180             0.0000000000
     20857       180  SAPE      C35           -36.5607300976       19.6829539275       -9.5064415358  MEMB      180             0.0000000000
     20858       180  SAPE      H5X           -35.7015708707       19.2329316157       -8.9645501523  MEMB      180             0.0000000000
     20859       180  SAPE      H5Y           -37.3374566406       18.8945170312       -9.4095706155  MEMB      180             0.0000000000
     20860       180  SAPE      C36           -37.0893206206       20.9915939401       -8.8188985948  MEMB      180             0.0000000000
     20861       180  SAPE      H6X           -37.9527181724       21.3096178871       -9.4415755684  MEMB      180             0.0000000000
     20862       180  SAPE      H6Y           -36.2985359490       21.7498966327       -9.0031750179  MEMB      180             0.0000000000
     20863       180  SAPE      C37           -37.4383936371       20.9092579807       -7.3401810285  MEMB      180             0.0000000000
     20864       180  SAPE      H7X           -36.5278454503       20.5511196197       -6.8139121390  MEMB      180             0.0000000000
     20865       180  SAPE      H7Y           -38.3198482382       20.2876409938       -7.0738151863  MEMB      180             0.0000000000
     20866       180  SAPE      C38           -37.9475591501       22.2924159589       -6.7541215715  MEMB      180             0.0000000000
     20867       180  SAPE      H8X           -38.5737808453       22.1529023872       -5.8470914600  MEMB      180             0.0000000000
     20868       180  SAPE      H8Y           -38.7102274602       22.7928575899       -7.3883272875  MEMB      180             0.0000000000
     20869       180  SAPE      C39           -36.8794032501       23.3081714680       -6.4572585859  MEMB      180             0.0000000000
     20870       180  SAPE      H9X           -37.3534723226       24.2682487548       -6.1608955141  MEMB      180             0.0000000000
     20871       180  SAPE      H9Y           -36.3549368514       23.5745655210       -7.3997505158  MEMB      180             0.0000000000
     20872       180  SAPE      C310          -35.8345934422       22.8446580049       -5.4278470234  MEMB      180             0.0000000000
     20873       180  SAPE      H10X          -35.2988210855       21.9889589294       -5.8915793017  MEMB      180             0.0000000000
     20874       180  SAPE      H10Y          -36.3682496539       22.4291041274       -4.5464569197  MEMB      180             0.0000000000
     20875       180  SAPE      C311          -34.9384152674       24.0432092527       -4.9880165213  MEMB      180             0.0000000000
     20876       180  SAPE      H11X          -35.6313349478       24.8746392847       -4.7372040673  MEMB      180             0.0000000000
     20877       180  SAPE      H11Y          -34.2783800380       24.3289238619       -5.8347997202  MEMB      180             0.0000000000
     20878       180  SAPE      C312          -33.9687991896       23.5693276360       -3.8498718910  MEMB      180             0.0000000000
     20879       180  SAPE      H12X          -33.0240186224       24.1537111357       -3.8355043513  MEMB      180             0.0000000000
     20880       180  SAPE      H12Y          -33.5967298160       22.6125441906       -4.2746668989  MEMB      180             0.0000000000
     20881       180  SAPE      C313          -34.5894038798       23.4384105961       -2.4505044641  MEMB      180             0.0000000000
     20882       180  SAPE      H13X          -35.5681299084       22.9204063915       -2.5404396669  MEMB      180             0.0000000000
     20883       180  SAPE      H13Y          -34.6654567229       24.4505605953       -1.9987418500  MEMB      180             0.0000000000
     20884       180  SAPE      C314          -33.7065265015       22.4593267505       -1.6655999332  MEMB      180             0.0000000000
     20885       180  SAPE      H14X          -32.6204433144       22.6876268903       -1.6143808666  MEMB      180             0.0000000000
     20886       180  SAPE      H14Y          -33.7373622524       21.3995827752       -1.9977344612  MEMB      180             0.0000000000
     20887       180  SAPE      C315          -34.0180917008       22.4585099307       -0.1904098937  MEMB      180             0.0000000000
     20888       180  SAPE      H15X          -35.0837945437       22.2803263038        0.0681409685  MEMB      180             0.0000000000
     20889       180  SAPE      H15Y          -33.7912735626       23.4710610472        0.2065968119  MEMB      180             0.0000000000
     20890       180  SAPE      C316          -33.3198137482       21.4564723254        0.7157767715  MEMB      180             0.0000000000
     20891       180  SAPE      H16X          -33.3171185415       21.8445037243        1.7568069022  MEMB      180             0.0000000000
     20892       180  SAPE      H16Y          -32.3120003130       21.2202043580        0.3122783350  MEMB      180             0.0000000000
     20893       180  SAPE      C317          -34.1409523430       20.1573899940        0.7807402693  MEMB      180             0.0000000000
     20894       180  SAPE      H17X          -34.1273612594       19.6920343634       -0.2280109855  MEMB      180             0.0000000000
     20895       180  SAPE      H17Y          -35.1947087383       20.3696352209        1.0615807902  MEMB      180             0.0000000000
     20896       180  SAPE      C318          -33.5219871870       19.2120256926        1.7929939287  MEMB      180             0.0000000000
     20897       180  SAPE      H18X          -34.1681171295       18.3091703268        1.8340962619  MEMB      180             0.0000000000
     20898       180  SAPE      H18Y          -33.4918881687       19.6878508311        2.7964902671  MEMB      180             0.0000000000
     20899       180  SAPE      H18Z          -32.4635408470       18.9029243906        1.6570941620  MEMB      180             0.0000000000
     20900       181  SOPE      N              23.9618846468      -29.6744136457      -22.7718452217  MEMB      181             0.0000000000
     20901       181  SOPE      HN1            24.4183935533      -30.5571028130      -23.0785363642  MEMB      181             0.0000000000
     20902       181  SOPE      HN2            22.9317036889      -29.8157324278      -22.7907206717  MEMB      181             0.0000000000
     20903       181  SOPE      HN3            24.2694981202      -28.8218144228      -23.2817947939  MEMB      181             0.0000000000
     20904       181  SOPE      C12            24.3110011847      -29.6869874418      -21.3094823366  MEMB      181             0.0000000000
     20905       181  SOPE      H12A           23.8156812796      -30.5824015607      -20.8768013594  MEMB      181             0.0000000000
     20906       181  SOPE      H12B           24.0491555253      -28.7487691255      -20.7751565032  MEMB      181             0.0000000000
     20907       181  SOPE      C11            25.7888407269      -29.9134964659      -21.0957118091  MEMB      181             0.0000000000
     20908       181  SOPE      H11A           26.0378697674      -30.8342641325      -21.6653541014  MEMB      181             0.0000000000
     20909       181  SOPE      H11B           25.9867568053      -30.0913689952      -20.0170498453  MEMB      181             0.0000000000
     20910       181  SOPE      P              27.1060412011      -27.7483726619      -20.5657309912  MEMB      181             0.0000000000
     20911       181  SOPE      O13            26.1465911509      -27.4150690877      -19.4324906586  MEMB      181             0.0000000000
     20912       181  SOPE      O14            27.7933843623      -26.5847297702      -21.2547914694  MEMB      181             0.0000000000
     20913       181  SOPE      O12            26.4366746243      -28.7276979249      -21.6895085430  MEMB      181             0.0000000000
     20914       181  SOPE      O11            28.1398540511      -28.6853433618      -19.8804390009  MEMB      181             0.0000000000
     20915       181  SOPE      C1             29.0759320498      -29.5786321563      -20.5526412466  MEMB      181             0.0000000000
     20916       181  SOPE      HA             29.6928019220      -29.0232768193      -21.2911350086  MEMB      181             0.0000000000
     20917       181  SOPE      HB             28.5571452758      -30.4286648718      -21.0452116864  MEMB      181             0.0000000000
     20918       181  SOPE      C2             30.0827740963      -30.2458779844      -19.5358090759  MEMB      181             0.0000000000
     20919       181  SOPE      HS             30.7390040367      -31.0133198750      -19.9991837805  MEMB      181             0.0000000000
     20920       181  SOPE      O21            29.5876980368      -30.8911133346      -18.3656793012  MEMB      181             0.0000000000
     20921       181  SOPE      C21            28.9519700058      -32.0836564903      -18.5390637527  MEMB      181             0.0000000000
     20922       181  SOPE      O22            28.7676478388      -32.6396431973      -19.5913518950  MEMB      181             0.0000000000
     20923       181  SOPE      C22            28.2983092455      -32.5884742939      -17.1867606774  MEMB      181             0.0000000000
     20924       181  SOPE      H2R            29.0012668685      -32.9624570656      -16.4119652293  MEMB      181             0.0000000000
     20925       181  SOPE      H2S            27.5117526718      -33.3172647604      -17.4774741613  MEMB      181             0.0000000000
     20926       181  SOPE      C3             31.0748915187      -29.1874268053      -19.0915892657  MEMB      181             0.0000000000
     20927       181  SOPE      HX             31.6307860119      -28.7983427819      -19.9713142345  MEMB      181             0.0000000000
     20928       181  SOPE      HY             31.8440006996      -29.5004601988      -18.3534820990  MEMB      181             0.0000000000
     20929       181  SOPE      O31            30.2337475665      -28.1222564643      -18.4639359186  MEMB      181             0.0000000000
     20930       181  SOPE      C31            29.9975455236      -28.2798878969      -17.1139803321  MEMB      181             0.0000000000
     20931       181  SOPE      O32            30.4310057568      -29.1366487250      -16.3817094662  MEMB      181             0.0000000000
     20932       181  SOPE      C32            28.8153383448      -27.2329602331      -16.6646490913  MEMB      181             0.0000000000
     20933       181  SOPE      H2X            27.8089424617      -27.6383094738      -16.9037734238  MEMB      181             0.0000000000
     20934       181  SOPE      H2Y            28.9659096880      -26.2453134959      -17.1506564703  MEMB      181             0.0000000000
     20935       181  SOPE      C23            27.5509750622      -31.3674946859      -16.4293008163  MEMB      181             0.0000000000
     20936       181  SOPE      H3R            26.6600308237      -31.0603998268      -17.0177159426  MEMB      181             0.0000000000
     20937       181  SOPE      H3S            28.2457370486      -30.5009800028      -16.4013902249  MEMB      181             0.0000000000
     20938       181  SOPE      C24            27.1398734093      -31.7822920030      -14.9879484406  MEMB      181             0.0000000000
     20939       181  SOPE      H4R            26.3927781260      -32.6039244406      -14.9549419575  MEMB      181             0.0000000000
     20940       181  SOPE      H4S            27.9854630633      -32.1516269280      -14.3691671730  MEMB      181             0.0000000000
     20941       181  SOPE      C25            26.4164159273      -30.5649395413      -14.3276840414  MEMB      181             0.0000000000
     20942       181  SOPE      H5R            27.1409039496      -29.7262034824      -14.4048833698  MEMB      181             0.0000000000
     20943       181  SOPE      H5S            25.5100784234      -30.1748163059      -14.8382493728  MEMB      181             0.0000000000
     20944       181  SOPE      C26            26.0285869169      -30.9667041003      -12.9631664385  MEMB      181             0.0000000000
     20945       181  SOPE      H6R            25.2919200129      -31.7880381461      -13.0937537240  MEMB      181             0.0000000000
     20946       181  SOPE      H6S            26.9309251895      -31.3642818792      -12.4512694657  MEMB      181             0.0000000000
     20947       181  SOPE      C27            25.6015148002      -29.7460757847      -12.1079435753  MEMB      181             0.0000000000
     20948       181  SOPE      H7R            26.4828061074      -29.0711373627      -12.1538193240  MEMB      181             0.0000000000
     20949       181  SOPE      H7S            24.7395444825      -29.1915454861      -12.5366908679  MEMB      181             0.0000000000
     20950       181  SOPE      C28            25.2645676488      -30.2361819840      -10.6798754102  MEMB      181             0.0000000000
     20951       181  SOPE      H8R            24.6948151495      -29.4765956685      -10.1030466158  MEMB      181             0.0000000000
     20952       181  SOPE      H8S            24.5231348852      -31.0430261007      -10.8631810285  MEMB      181             0.0000000000
     20953       181  SOPE      C29            26.5917891710      -30.5687261160       -9.9415477441  MEMB      181             0.0000000000
     20954       181  SOPE      H91            27.4613033875      -29.9872087773      -10.2818158325  MEMB      181             0.0000000000
     20955       181  SOPE      C210           26.7093316292      -31.5556728769       -9.0341058661  MEMB      181             0.0000000000
     20956       181  SOPE      H101           27.7020602785      -31.7902809356       -8.6224647708  MEMB      181             0.0000000000
     20957       181  SOPE      C211           25.6301023130      -32.4453537716       -8.5001143622  MEMB      181             0.0000000000
     20958       181  SOPE      H11R           25.9765359828      -33.4529818603       -8.1854868225  MEMB      181             0.0000000000
     20959       181  SOPE      H11S           24.9196525245      -32.6928018874       -9.3176425492  MEMB      181             0.0000000000
     20960       181  SOPE      C212           24.8557033862      -31.7343449404       -7.3359820381  MEMB      181             0.0000000000
     20961       181  SOPE      H12R           23.9455098525      -32.3598815913       -7.2152647664  MEMB      181             0.0000000000
     20962       181  SOPE      H12S           24.6737355802      -30.6483459820       -7.4836807127  MEMB      181             0.0000000000
     20963       181  SOPE      C213           25.6392758554      -31.7929593492       -5.9777901291  MEMB      181             0.0000000000
     20964       181  SOPE      H13R           26.4902538568      -31.0794712606       -6.0108305833  MEMB      181             0.0000000000
     20965       181  SOPE      H13S           26.0796596747      -32.7903405762       -5.7642170560  MEMB      181             0.0000000000
     20966       181  SOPE      C214           24.7859510131      -31.3702416976       -4.7799756292  MEMB      181             0.0000000000
     20967       181  SOPE      H14R           23.8907661945      -32.0266202195       -4.8261514887  MEMB      181             0.0000000000
     20968       181  SOPE      H14S           24.5895003648      -30.2822745955       -4.8897741708  MEMB      181             0.0000000000
     20969       181  SOPE      C215           25.6381299919      -31.5378316087       -3.5249105563  MEMB      181             0.0000000000
     20970       181  SOPE      H15R           26.3243252361      -30.6711971175       -3.4135474764  MEMB      181             0.0000000000
     20971       181  SOPE      H15S           26.2095048360      -32.4873065529       -3.6045911299  MEMB      181             0.0000000000
     20972       181  SOPE      C216           24.7796218956      -31.5702982408       -2.2099347224  MEMB      181             0.0000000000
     20973       181  SOPE      H16R           25.4241149339      -31.7483264462       -1.3226618331  MEMB      181             0.0000000000
     20974       181  SOPE      H16S           24.0580624835      -32.4127101815       -2.2732996704  MEMB      181             0.0000000000
     20975       181  SOPE      C217           23.8907171562      -30.2815876989       -2.0075088231  MEMB      181             0.0000000000
     20976       181  SOPE      H17R           23.1622997202      -30.6539580476       -1.2557985436  MEMB      181             0.0000000000
     20977       181  SOPE      H17S           23.2445574633      -30.0056505585       -2.8681239219  MEMB      181             0.0000000000
     20978       181  SOPE      C218           24.7267734559      -29.1599444111       -1.5000602885  MEMB      181             0.0000000000
     20979       181  SOPE      H18R           25.1116711487      -28.4926525288       -2.3006210427  MEMB      181             0.0000000000
     20980       181  SOPE      H18S           25.4506153771      -29.6645965224       -0.8250044527  MEMB      181             0.0000000000
     20981       181  SOPE      H18T           24.1861726628      -28.5353964606       -0.7570866615  MEMB      181             0.0000000000
     20982       181  SOPE      C33            28.7712524773      -27.1322618521      -15.1264164450  MEMB      181             0.0000000000
     20983       181  SOPE      H3X            29.2096769335      -28.0241417624      -14.6297721013  MEMB      181             0.0000000000
     20984       181  SOPE      H3Y            27.7074829350      -27.1769239686      -14.8090510396  MEMB      181             0.0000000000
     20985       181  SOPE      C34            29.2449502123      -25.8052018045      -14.5079660822  MEMB      181             0.0000000000
     20986       181  SOPE      H4X            28.6309900679      -24.9401550247      -14.8382207948  MEMB      181             0.0000000000
     20987       181  SOPE      H4Y            30.3321312225      -25.6140229478      -14.6337011885  MEMB      181             0.0000000000
     20988       181  SOPE      C35            28.9548239122      -25.6632952362      -12.9778424606  MEMB      181             0.0000000000
     20989       181  SOPE      H5X            27.8771084304      -25.7325867144      -12.7169799435  MEMB      181             0.0000000000
     20990       181  SOPE      H5Y            29.3677059524      -24.7001744660      -12.6087254927  MEMB      181             0.0000000000
     20991       181  SOPE      C36            29.6702932288      -26.7983425261      -12.1804553689  MEMB      181             0.0000000000
     20992       181  SOPE      H6X            30.7094977732      -26.9088046213      -12.5575138778  MEMB      181             0.0000000000
     20993       181  SOPE      H6Y            29.1218497392      -27.7456654700      -12.3704815322  MEMB      181             0.0000000000
     20994       181  SOPE      C37            29.8568677637      -26.5107437803      -10.6556072540  MEMB      181             0.0000000000
     20995       181  SOPE      H7X            30.8107276944      -25.9460693620      -10.5806732138  MEMB      181             0.0000000000
     20996       181  SOPE      H7Y            29.9997769768      -27.4698411199      -10.1133614874  MEMB      181             0.0000000000
     20997       181  SOPE      C38            28.5629135337      -25.8032089687      -10.1432168295  MEMB      181             0.0000000000
     20998       181  SOPE      H8X            27.6305285764      -26.1499113498      -10.6379660444  MEMB      181             0.0000000000
     20999       181  SOPE      H8Y            28.7647606571      -24.7368033936      -10.3806162205  MEMB      181             0.0000000000
     21000       181  SOPE      C39            28.4711051511      -25.7848557101       -8.6188666861  MEMB      181             0.0000000000
     21001       181  SOPE      H9X            29.3440893008      -25.3700449584       -8.0710058265  MEMB      181             0.0000000000
     21002       181  SOPE      H9Y            28.4377067267      -26.8349862700       -8.2577140327  MEMB      181             0.0000000000
     21003       181  SOPE      C310           27.3435112008      -24.9548085567       -8.0106212112  MEMB      181             0.0000000000
     21004       181  SOPE      H10X           27.4880122307      -23.8563388535       -8.0931088881  MEMB      181             0.0000000000
     21005       181  SOPE      H10Y           27.4160578839      -24.9835968656       -6.9023663306  MEMB      181             0.0000000000
     21006       181  SOPE      C311           25.8928891217      -25.2195167447       -8.3808981995  MEMB      181             0.0000000000
     21007       181  SOPE      H11X           25.7964366010      -25.3979266970       -9.4732288466  MEMB      181             0.0000000000
     21008       181  SOPE      H11Y           25.3688914678      -24.3135619483       -8.0080791495  MEMB      181             0.0000000000
     21009       181  SOPE      C312           25.2497914387      -26.5206176877       -7.8392673671  MEMB      181             0.0000000000
     21010       181  SOPE      H12X           26.0248356671      -27.2593137778       -8.1358403030  MEMB      181             0.0000000000
     21011       181  SOPE      H12Y           24.2371148660      -26.7151676080       -8.2527373619  MEMB      181             0.0000000000
     21012       181  SOPE      C313           25.2610119575      -26.6086352070       -6.2854779469  MEMB      181             0.0000000000
     21013       181  SOPE      H13X           26.3154488910      -26.5516906541       -5.9401646589  MEMB      181             0.0000000000
     21014       181  SOPE      H13Y           24.8020251893      -27.5757649908       -5.9883041374  MEMB      181             0.0000000000
     21015       181  SOPE      C314           24.4735760903      -25.4630899876       -5.5418207016  MEMB      181             0.0000000000
     21016       181  SOPE      H14X           23.3848642523      -25.5076946621       -5.7587027872  MEMB      181             0.0000000000
     21017       181  SOPE      H14Y           24.8515104414      -24.4490340368       -5.7931713251  MEMB      181             0.0000000000
     21018       181  SOPE      C315           24.7319205782      -25.6066220033       -3.9720728312  MEMB      181             0.0000000000
     21019       181  SOPE      H15X           25.8295215960      -25.7532428722       -3.8821005812  MEMB      181             0.0000000000
     21020       181  SOPE      H15Y           24.1167870655      -26.4876336891       -3.6896724509  MEMB      181             0.0000000000
     21021       181  SOPE      C316           24.2014230884      -24.3792238428       -3.2011629322  MEMB      181             0.0000000000
     21022       181  SOPE      H16X           23.2648577690      -23.9735035875       -3.6399772833  MEMB      181             0.0000000000
     21023       181  SOPE      H16Y           24.9767609942      -23.5978648280       -3.3516621648  MEMB      181             0.0000000000
     21024       181  SOPE      C317           23.9679055661      -24.6564360350       -1.7027395439  MEMB      181             0.0000000000
     21025       181  SOPE      H17X           23.9064744423      -23.6635090653       -1.2081242086  MEMB      181             0.0000000000
     21026       181  SOPE      H17Y           24.8938925405      -25.1051576428       -1.2837908839  MEMB      181             0.0000000000
     21027       181  SOPE      C318           22.7637221509      -25.4709148295       -1.3198164961  MEMB      181             0.0000000000
     21028       181  SOPE      H18X           21.8851706323      -25.0164193167       -1.8256845070  MEMB      181             0.0000000000
     21029       181  SOPE      H18Y           22.6862347867      -25.2753485408       -0.2289125520  MEMB      181             0.0000000000
     21030       181  SOPE      H18Z           22.8385719221      -26.5433946685       -1.6000053848  MEMB      181             0.0000000000
     21031       182  SOPE      N             -33.6467687776      -22.7723295115      -20.9562555786  MEMB      182             0.0000000000
     21032       182  SOPE      HN1           -32.8057230990      -22.8078766552      -21.5669753353  MEMB      182             0.0000000000
     21033       182  SOPE      HN2           -33.5210175626      -22.1574733468      -20.1269555244  MEMB      182             0.0000000000
     21034       182  SOPE      HN3           -33.8640997046      -23.7200495419      -20.5872102281  MEMB      182             0.0000000000
     21035       182  SOPE      C12           -34.7900392138      -22.0243101202      -21.5760666267  MEMB      182             0.0000000000
     21036       182  SOPE      H12A          -35.6274466734      -22.1112518961      -20.8511453444  MEMB      182             0.0000000000
     21037       182  SOPE      H12B          -34.9720799554      -22.5884179294      -22.5157285620  MEMB      182             0.0000000000
     21038       182  SOPE      C11           -34.5741497465      -20.5467476056      -21.8315564524  MEMB      182             0.0000000000
     21039       182  SOPE      H11A          -35.6095383750      -20.1975214856      -22.0323859002  MEMB      182             0.0000000000
     21040       182  SOPE      H11B          -33.9830978301      -20.2430758628      -22.7219283597  MEMB      182             0.0000000000
     21041       182  SOPE      P             -34.1311788610      -18.2667005902      -20.7796563152  MEMB      182             0.0000000000
     21042       182  SOPE      O13           -35.4650295592      -17.6616086783      -20.7819813153  MEMB      182             0.0000000000
     21043       182  SOPE      O14           -33.3205669132      -18.0920096207      -22.0225422752  MEMB      182             0.0000000000
     21044       182  SOPE      O12           -34.3092293028      -19.8884403914      -20.5368249291  MEMB      182             0.0000000000
     21045       182  SOPE      O11           -33.3208472230      -17.7610398850      -19.5151165065  MEMB      182             0.0000000000
     21046       182  SOPE      C1            -31.9997203129      -18.2732641527      -19.3154217307  MEMB      182             0.0000000000
     21047       182  SOPE      HA            -31.5318967801      -17.5976579163      -18.5677464177  MEMB      182             0.0000000000
     21048       182  SOPE      HB            -31.3813222128      -18.3408717939      -20.2359292020  MEMB      182             0.0000000000
     21049       182  SOPE      C2            -32.0199932673      -19.6940368333      -18.7007307519  MEMB      182             0.0000000000
     21050       182  SOPE      HS            -32.1564772077      -20.3624211579      -19.5776319233  MEMB      182             0.0000000000
     21051       182  SOPE      O21           -33.1261624783      -19.7818180189      -17.7583165555  MEMB      182             0.0000000000
     21052       182  SOPE      C21           -33.3910273731      -21.0570336430      -17.3674445918  MEMB      182             0.0000000000
     21053       182  SOPE      O22           -32.6693390523      -22.0107816747      -17.4461926115  MEMB      182             0.0000000000
     21054       182  SOPE      C22           -34.8699418538      -21.1375131991      -16.9293964088  MEMB      182             0.0000000000
     21055       182  SOPE      H2R           -35.4408988021      -21.7011101890      -17.6979587366  MEMB      182             0.0000000000
     21056       182  SOPE      H2S           -35.2812509850      -20.1091371494      -17.0165071261  MEMB      182             0.0000000000
     21057       182  SOPE      C3            -30.7068202747      -19.8669496350      -17.9641624182  MEMB      182             0.0000000000
     21058       182  SOPE      HX            -29.8767037968      -19.6631472664      -18.6738749996  MEMB      182             0.0000000000
     21059       182  SOPE      HY            -30.5835564320      -20.8682193000      -17.4987740995  MEMB      182             0.0000000000
     21060       182  SOPE      O31           -30.6178992929      -18.8621600281      -16.9160497171  MEMB      182             0.0000000000
     21061       182  SOPE      C31           -29.6740079391      -19.1287183572      -15.9984520372  MEMB      182             0.0000000000
     21062       182  SOPE      O32           -28.6719562703      -19.8848453868      -16.1343536577  MEMB      182             0.0000000000
     21063       182  SOPE      C32           -29.8917860791      -18.1602372648      -14.7794309336  MEMB      182             0.0000000000
     21064       182  SOPE      H2X           -29.6042775268      -17.1307081404      -15.0822998247  MEMB      182             0.0000000000
     21065       182  SOPE      H2Y           -29.3095633777      -18.4610916880      -13.8823110291  MEMB      182             0.0000000000
     21066       182  SOPE      C23           -34.8439124922      -21.7166169459      -15.5294964408  MEMB      182             0.0000000000
     21067       182  SOPE      H3R           -34.4742593242      -21.0116860309      -14.7544159776  MEMB      182             0.0000000000
     21068       182  SOPE      H3S           -34.1850873999      -22.6108849902      -15.5059389578  MEMB      182             0.0000000000
     21069       182  SOPE      C24           -36.2880564076      -22.0126777823      -14.9788573013  MEMB      182             0.0000000000
     21070       182  SOPE      H4R           -36.8815899801      -21.0756026648      -14.9161739462  MEMB      182             0.0000000000
     21071       182  SOPE      H4S           -36.6655129717      -22.7808398499      -15.6872172382  MEMB      182             0.0000000000
     21072       182  SOPE      C25           -36.3403157287      -22.4872624376      -13.4981360845  MEMB      182             0.0000000000
     21073       182  SOPE      H5R           -37.3140681673      -22.9245576994      -13.1900767490  MEMB      182             0.0000000000
     21074       182  SOPE      H5S           -35.5353716291      -23.2528431042      -13.5146140032  MEMB      182             0.0000000000
     21075       182  SOPE      C26           -36.0247251847      -21.4029862763      -12.3930843841  MEMB      182             0.0000000000
     21076       182  SOPE      H6R           -35.0407931850      -20.9009955457      -12.5122664017  MEMB      182             0.0000000000
     21077       182  SOPE      H6S           -36.8314144064      -20.6411529822      -12.4495053063  MEMB      182             0.0000000000
     21078       182  SOPE      C27           -36.2065145213      -22.0566220084      -10.9632294526  MEMB      182             0.0000000000
     21079       182  SOPE      H7R           -37.1347395004      -22.6643353641      -10.9048852807  MEMB      182             0.0000000000
     21080       182  SOPE      H7S           -35.4333384047      -22.8320945398      -10.7757156107  MEMB      182             0.0000000000
     21081       182  SOPE      C28           -36.3035816660      -21.0821957060       -9.8178385902  MEMB      182             0.0000000000
     21082       182  SOPE      H8R           -37.2348000217      -20.4883864067       -9.9384384500  MEMB      182             0.0000000000
     21083       182  SOPE      H8S           -36.4000644528      -21.6388858216       -8.8612251742  MEMB      182             0.0000000000
     21084       182  SOPE      C29           -35.1149383323      -20.1640830220       -9.6745958142  MEMB      182             0.0000000000
     21085       182  SOPE      H91           -34.8256029257      -19.6290101422      -10.5911012247  MEMB      182             0.0000000000
     21086       182  SOPE      C210          -34.4249388343      -19.8937829803       -8.5059329757  MEMB      182             0.0000000000
     21087       182  SOPE      H101          -33.5004524874      -19.2978731990       -8.5206454833  MEMB      182             0.0000000000
     21088       182  SOPE      C211          -34.6934329228      -20.4423608285       -7.1605264378  MEMB      182             0.0000000000
     21089       182  SOPE      H11R          -33.7554749021      -20.3468958321       -6.5727827270  MEMB      182             0.0000000000
     21090       182  SOPE      H11S          -34.8769471337      -21.5324445582       -7.0493459424  MEMB      182             0.0000000000
     21091       182  SOPE      C212          -35.7706826092      -19.6299522171       -6.3458898882  MEMB      182             0.0000000000
     21092       182  SOPE      H12R          -36.7088183130      -19.4620198473       -6.9168727230  MEMB      182             0.0000000000
     21093       182  SOPE      H12S          -35.3886751433      -18.6025003739       -6.1649639980  MEMB      182             0.0000000000
     21094       182  SOPE      C213          -36.1120810836      -20.4177234527       -5.0265806908  MEMB      182             0.0000000000
     21095       182  SOPE      H13R          -35.2495674282      -20.4795085703       -4.3290317108  MEMB      182             0.0000000000
     21096       182  SOPE      H13S          -36.5077803478      -21.4052076075       -5.3469199704  MEMB      182             0.0000000000
     21097       182  SOPE      C214          -37.2825464936      -19.7210986549       -4.3034686637  MEMB      182             0.0000000000
     21098       182  SOPE      H14R          -37.8343203624      -20.4276694543       -3.6472495221  MEMB      182             0.0000000000
     21099       182  SOPE      H14S          -37.9658497198      -19.4214171340       -5.1266390015  MEMB      182             0.0000000000
     21100       182  SOPE      C215          -36.8406548473      -18.4615981970       -3.4411415759  MEMB      182             0.0000000000
     21101       182  SOPE      H15R          -37.7300105758      -17.8080649146       -3.3136181935  MEMB      182             0.0000000000
     21102       182  SOPE      H15S          -36.0626626931      -17.8972843666       -3.9984558295  MEMB      182             0.0000000000
     21103       182  SOPE      C216          -36.1298461589      -18.8801777495       -2.1448262337  MEMB      182             0.0000000000
     21104       182  SOPE      H16R          -35.1699107533      -19.4285115200       -2.2551682047  MEMB      182             0.0000000000
     21105       182  SOPE      H16S          -36.8157777516      -19.4957766566       -1.5244591444  MEMB      182             0.0000000000
     21106       182  SOPE      C217          -35.7412684948      -17.5919770015       -1.3874253167  MEMB      182             0.0000000000
     21107       182  SOPE      H17R          -36.5998295295      -16.8959346316       -1.5002038547  MEMB      182             0.0000000000
     21108       182  SOPE      H17S          -34.9373369667      -17.0959556514       -1.9722132457  MEMB      182             0.0000000000
     21109       182  SOPE      C218          -35.3769569265      -17.8953842683        0.0855963698  MEMB      182             0.0000000000
     21110       182  SOPE      H18R          -35.7146994343      -17.0104505340        0.6662379515  MEMB      182             0.0000000000
     21111       182  SOPE      H18S          -34.2825814364      -17.8090325568        0.2564968372  MEMB      182             0.0000000000
     21112       182  SOPE      H18T          -35.6707553389      -18.8677632311        0.5355780525  MEMB      182             0.0000000000
     21113       182  SOPE      C33           -31.4424316466      -18.0885721289      -14.4279465015  MEMB      182             0.0000000000
     21114       182  SOPE      H3X           -31.9683276763      -19.0305792422      -14.6932333435  MEMB      182             0.0000000000
     21115       182  SOPE      H3Y           -32.0703325554      -17.2999458422      -14.8949903109  MEMB      182             0.0000000000
     21116       182  SOPE      C34           -31.5087174276      -17.7302358836      -12.9617164659  MEMB      182             0.0000000000
     21117       182  SOPE      H4X           -30.8863243006      -18.4817321473      -12.4304906525  MEMB      182             0.0000000000
     21118       182  SOPE      H4Y           -32.5703342743      -17.7645143573      -12.6359633608  MEMB      182             0.0000000000
     21119       182  SOPE      C35           -30.9773093877      -16.3514767926      -12.4824082713  MEMB      182             0.0000000000
     21120       182  SOPE      H5X           -31.3189858176      -15.6028479381      -13.2288214135  MEMB      182             0.0000000000
     21121       182  SOPE      H5Y           -29.8731954306      -16.3980899939      -12.3680373629  MEMB      182             0.0000000000
     21122       182  SOPE      C36           -31.6368934909      -15.9731152737      -11.1803996210  MEMB      182             0.0000000000
     21123       182  SOPE      H6X           -32.7253241010      -16.1575448497      -11.3054016820  MEMB      182             0.0000000000
     21124       182  SOPE      H6Y           -31.4587529305      -14.9149517247      -10.8925150547  MEMB      182             0.0000000000
     21125       182  SOPE      C37           -31.2236857838      -16.8111884999      -10.0009901130  MEMB      182             0.0000000000
     21126       182  SOPE      H7X           -30.1826733823      -16.6205322582       -9.6629589330  MEMB      182             0.0000000000
     21127       182  SOPE      H7Y           -31.3104136357      -17.8800758600      -10.2912985368  MEMB      182             0.0000000000
     21128       182  SOPE      C38           -32.0203195798      -16.6007684791       -8.7221041965  MEMB      182             0.0000000000
     21129       182  SOPE      H8X           -33.1082884010      -16.6027631110       -8.9471403398  MEMB      182             0.0000000000
     21130       182  SOPE      H8Y           -31.7221084539      -15.6219279788       -8.2893667733  MEMB      182             0.0000000000
     21131       182  SOPE      C39           -31.6889398810      -17.6895850928       -7.6657073604  MEMB      182             0.0000000000
     21132       182  SOPE      H9X           -30.6055984595      -17.6123035255       -7.4317859394  MEMB      182             0.0000000000
     21133       182  SOPE      H9Y           -31.9112409376      -18.6891418674       -8.0967405299  MEMB      182             0.0000000000
     21134       182  SOPE      C310          -32.3471706518      -17.4513499237       -6.2767176137  MEMB      182             0.0000000000
     21135       182  SOPE      H10X          -33.3577706792      -17.9125284065       -6.2946898259  MEMB      182             0.0000000000
     21136       182  SOPE      H10Y          -32.4417683999      -16.3646847893       -6.0656946240  MEMB      182             0.0000000000
     21137       182  SOPE      C311          -31.5189743966      -18.0874084597       -5.1164662622  MEMB      182             0.0000000000
     21138       182  SOPE      H11X          -30.4213325791      -17.9532803230       -5.2237659247  MEMB      182             0.0000000000
     21139       182  SOPE      H11Y          -31.7097533457      -19.1735637655       -4.9815924894  MEMB      182             0.0000000000
     21140       182  SOPE      C312          -32.0067674598      -17.5175600322       -3.7324580412  MEMB      182             0.0000000000
     21141       182  SOPE      H12X          -31.3845240249      -17.8445075426       -2.8720869265  MEMB      182             0.0000000000
     21142       182  SOPE      H12Y          -33.0778649126      -17.7819313021       -3.6013895455  MEMB      182             0.0000000000
     21143       182  SOPE      C313          -31.9705061326      -16.0102133834       -3.5818074949  MEMB      182             0.0000000000
     21144       182  SOPE      H13X          -32.6934177851      -15.4742465409       -4.2333121321  MEMB      182             0.0000000000
     21145       182  SOPE      H13Y          -30.9889414812      -15.6808864856       -3.9847907948  MEMB      182             0.0000000000
     21146       182  SOPE      C314          -32.1795345853      -15.5067651709       -2.1132618072  MEMB      182             0.0000000000
     21147       182  SOPE      H14X          -31.3077151500      -16.0736640517       -1.7222673138  MEMB      182             0.0000000000
     21148       182  SOPE      H14Y          -33.1041138166      -16.0064118779       -1.7529470806  MEMB      182             0.0000000000
     21149       182  SOPE      C315          -32.3474843971      -14.0099370917       -1.7845792376  MEMB      182             0.0000000000
     21150       182  SOPE      H15X          -31.4508364026      -13.4227422374       -2.0770609570  MEMB      182             0.0000000000
     21151       182  SOPE      H15Y          -32.4543689757      -14.0462794712       -0.6793302937  MEMB      182             0.0000000000
     21152       182  SOPE      C316          -33.5218717150      -13.1851845419       -2.3455440945  MEMB      182             0.0000000000
     21153       182  SOPE      H16X          -33.5408463033      -13.3230029521       -3.4478002609  MEMB      182             0.0000000000
     21154       182  SOPE      H16Y          -33.3888968238      -12.1291201231       -2.0271622727  MEMB      182             0.0000000000
     21155       182  SOPE      C317          -34.7531721602      -13.7698247380       -1.7734501546  MEMB      182             0.0000000000
     21156       182  SOPE      H17X          -34.8658681352      -13.8531110578       -0.6713234458  MEMB      182             0.0000000000
     21157       182  SOPE      H17Y          -34.9566872706      -14.7745021660       -2.2018492077  MEMB      182             0.0000000000
     21158       182  SOPE      C318          -36.0587502399      -13.1178536371       -2.3177446210  MEMB      182             0.0000000000
     21159       182  SOPE      H18X          -36.1830878034      -12.0325701907       -2.1152082495  MEMB      182             0.0000000000
     21160       182  SOPE      H18Y          -36.9321738497      -13.6130065216       -1.8420586771  MEMB      182             0.0000000000
     21161       182  SOPE      H18Z          -36.1136302626      -13.1877407645       -3.4251845975  MEMB      182             0.0000000000
     21162       183  CHL1      C3             32.6735191754      -23.9406688431      -17.3012800000  MEMB      183             0.0000000000
     21163       183  CHL1      H3             33.7479940297      -24.1454389573      -17.1066100000  MEMB      183             0.0000000000
     21164       183  CHL1      O3             32.2960924246      -23.9955981569      -18.6987200000  MEMB      183             0.0000000000
     21165       183  CHL1      H3'            31.3464443497      -23.8899139026      -18.7914400000  MEMB      183             0.0000000000
     21166       183  CHL1      C4             31.9352340013      -25.0669226669      -16.5704800000  MEMB      183             0.0000000000
     21167       183  CHL1      H4A            30.8617778754      -25.0153351203      -16.8521300000  MEMB      183             0.0000000000
     21168       183  CHL1      H4B            32.2393720311      -26.0733269038      -16.9296000000  MEMB      183             0.0000000000
     21169       183  CHL1      C5             31.9698558809      -25.0149875348      -15.1211200000  MEMB      183             0.0000000000
     21170       183  CHL1      C6             32.3418007012      -26.0831674754      -14.3653600000  MEMB      183             0.0000000000
     21171       183  CHL1      H6             32.4097502002      -27.0568943317      -14.8725500000  MEMB      183             0.0000000000
     21172       183  CHL1      C7             32.3547065084      -26.1460361245      -12.8383400000  MEMB      183             0.0000000000
     21173       183  CHL1      H7A            31.7538954779      -26.9800792671      -12.4167700000  MEMB      183             0.0000000000
     21174       183  CHL1      H7B            33.3810619362      -26.2483346753      -12.4254800000  MEMB      183             0.0000000000
     21175       183  CHL1      C8             31.6955038516      -24.8929977397      -12.3449800000  MEMB      183             0.0000000000
     21176       183  CHL1      H8             30.5937523400      -25.0139892661      -12.4214100000  MEMB      183             0.0000000000
     21177       183  CHL1      C14            31.9569584699      -24.8216127864      -10.7847400000  MEMB      183             0.0000000000
     21178       183  CHL1      H14            33.0522470649      -24.8346613750      -10.5990100000  MEMB      183             0.0000000000
     21179       183  CHL1      C15            31.4883095381      -26.0128267091       -9.8838500000  MEMB      183             0.0000000000
     21180       183  CHL1      H15A           30.4687233166      -26.3628413068      -10.1526200000  MEMB      183             0.0000000000
     21181       183  CHL1      H15B           32.0323931087      -26.9814569981       -9.8910200000  MEMB      183             0.0000000000
     21182       183  CHL1      C16            31.6369134137      -25.3330209449       -8.5003300000  MEMB      183             0.0000000000
     21183       183  CHL1      H16A           30.6365081024      -25.4591985010       -8.0338800000  MEMB      183             0.0000000000
     21184       183  CHL1      H16B           32.3751107761      -25.8688620498       -7.8660900000  MEMB      183             0.0000000000
     21185       183  CHL1      C17            32.0478936296      -23.8521455212       -8.6370800000  MEMB      183             0.0000000000
     21186       183  CHL1      H17            33.1409922667      -23.6653484998       -8.7046800000  MEMB      183             0.0000000000
     21187       183  CHL1      C13            31.5144035097      -23.5458285958      -10.0565000000  MEMB      183             0.0000000000
     21188       183  CHL1      C18            29.9964112999      -23.3480854188       -9.9887100000  MEMB      183             0.0000000000
     21189       183  CHL1      H18A           29.4619669070      -23.2969609985      -10.9613700000  MEMB      183             0.0000000000
     21190       183  CHL1      H18B           29.4859653181      -24.1851772306       -9.4661800000  MEMB      183             0.0000000000
     21191       183  CHL1      H18C           29.6475351873      -22.4355415551       -9.4596800000  MEMB      183             0.0000000000
     21192       183  CHL1      C12            32.2052372091      -22.4187489101      -10.7682800000  MEMB      183             0.0000000000
     21193       183  CHL1      H12A           31.9624339201      -21.4566067943      -10.2686300000  MEMB      183             0.0000000000
     21194       183  CHL1      H12B           33.2860335230      -22.6695358228      -10.7107800000  MEMB      183             0.0000000000
     21195       183  CHL1      C11            31.8948249200      -22.3600553018      -12.2644100000  MEMB      183             0.0000000000
     21196       183  CHL1      H11A           30.9324757892      -21.8586724622      -12.5027700000  MEMB      183             0.0000000000
     21197       183  CHL1      H11B           32.6048189406      -21.5986228523      -12.6523000000  MEMB      183             0.0000000000
     21198       183  CHL1      C9             32.1364319058      -23.6636708095      -13.0325500000  MEMB      183             0.0000000000
     21199       183  CHL1      H9             33.2470345969      -23.6594819659      -13.0032700000  MEMB      183             0.0000000000
     21200       183  CHL1      C10            31.6499802439      -23.6416188569      -14.4877100000  MEMB      183             0.0000000000
     21201       183  CHL1      C19            30.1208022752      -23.3107865414      -14.6658000000  MEMB      183             0.0000000000
     21202       183  CHL1      H19A           30.0759445958      -22.2223514008      -14.8839900000  MEMB      183             0.0000000000
     21203       183  CHL1      H19B           29.6181390678      -23.8277635286      -15.5110100000  MEMB      183             0.0000000000
     21204       183  CHL1      H19C           29.6401436915      -23.5629030749      -13.6964000000  MEMB      183             0.0000000000
     21205       183  CHL1      C1             32.4222226762      -22.4917946551      -15.2079200000  MEMB      183             0.0000000000
     21206       183  CHL1      H1A            32.1408402802      -21.4710737590      -14.8713600000  MEMB      183             0.0000000000
     21207       183  CHL1      H1B            33.5160504274      -22.6316906004      -15.0726800000  MEMB      183             0.0000000000
     21208       183  CHL1      C2             32.3136115413      -22.5746596288      -16.7848000000  MEMB      183             0.0000000000
     21209       183  CHL1      H2A            33.0457528973      -21.8274785665      -17.1590000000  MEMB      183             0.0000000000
     21210       183  CHL1      H2B            31.2801083189      -22.2971112962      -17.0833800000  MEMB      183             0.0000000000
     21211       183  CHL1      C20            31.6549504972      -23.0148110635       -7.4083300000  MEMB      183             0.0000000000
     21212       183  CHL1      H20            30.5440391205      -23.0271182020       -7.4002300000  MEMB      183             0.0000000000
     21213       183  CHL1      C21            32.0106535720      -21.5064297827       -7.5127300000  MEMB      183             0.0000000000
     21214       183  CHL1      H21A           31.7154407819      -20.9687867708       -6.5863900000  MEMB      183             0.0000000000
     21215       183  CHL1      H21B           31.4782764134      -21.0670935657       -8.3832900000  MEMB      183             0.0000000000
     21216       183  CHL1      H21C           33.0786774452      -21.4486705931       -7.8132600000  MEMB      183             0.0000000000
     21217       183  CHL1      C22            32.3257129592      -23.6178487183       -6.1689100000  MEMB      183             0.0000000000
     21218       183  CHL1      H22A           32.5000543754      -24.7131679859       -6.2338200000  MEMB      183             0.0000000000
     21219       183  CHL1      H22B           33.3700510406      -23.2512220787       -6.0726800000  MEMB      183             0.0000000000
     21220       183  CHL1      C23            31.6251582707      -23.2945418414       -4.8503300000  MEMB      183             0.0000000000
     21221       183  CHL1      H23A           31.3311611131      -22.2276962113       -4.7517100000  MEMB      183             0.0000000000
     21222       183  CHL1      H23B           30.7068938441      -23.9189902452       -4.8160400000  MEMB      183             0.0000000000
     21223       183  CHL1      C24            32.4040876022      -23.7411279455       -3.5987200000  MEMB      183             0.0000000000
     21224       183  CHL1      H24A           32.9731145532      -24.6618469751       -3.8493200000  MEMB      183             0.0000000000
     21225       183  CHL1      H24B           33.1409896501      -22.9808050297       -3.2622500000  MEMB      183             0.0000000000
     21226       183  CHL1      C25            31.6080427501      -24.1279289150       -2.3850800000  MEMB      183             0.0000000000
     21227       183  CHL1      H25            30.8733271752      -24.8895300465       -2.7234000000  MEMB      183             0.0000000000
     21228       183  CHL1      C26            32.5381643702      -24.7776064193       -1.3468500000  MEMB      183             0.0000000000
     21229       183  CHL1      H26A           33.5515911829      -24.3299290334       -1.4297600000  MEMB      183             0.0000000000
     21230       183  CHL1      H26B           32.2330670533      -24.6317901643       -0.2885600000  MEMB      183             0.0000000000
     21231       183  CHL1      H26C           32.6074562149      -25.8502962187       -1.6276700000  MEMB      183             0.0000000000
     21232       183  CHL1      C27            30.8819672752      -23.0405667128       -1.7150600000  MEMB      183             0.0000000000
     21233       183  CHL1      H27A           31.6004430369      -22.3819266101       -1.1818500000  MEMB      183             0.0000000000
     21234       183  CHL1      H27B           30.2486616232      -22.5740484114       -2.4996700000  MEMB      183             0.0000000000
     21235       183  CHL1      H27C           30.1458728448      -23.4348859896       -0.9822700000  MEMB      183             0.0000000000
     21236       184  OSM       N             -26.7863650875       30.9616591165      -22.3100012632  MEMB      184             0.0000000000
     21237       184  OSM       C15           -27.6286957553       29.8633721060      -22.9323632625  MEMB      184             0.0000000000
     21238       184  OSM       H15A          -28.2904851461       30.3449114450      -23.6370296797  MEMB      184             0.0000000000
     21239       184  OSM       H15B          -28.1159008557       29.2408982893      -22.1964574304  MEMB      184             0.0000000000
     21240       184  OSM       H15C          -27.0043838510       29.1931213645      -23.5045509315  MEMB      184             0.0000000000
     21241       184  OSM       C14           -25.8482175863       30.2527624955      -21.4050469597  MEMB      184             0.0000000000
     21242       184  OSM       H14A          -25.1917832079       30.9387636744      -20.8903659993  MEMB      184             0.0000000000
     21243       184  OSM       H14B          -25.1738375595       29.7150361524      -22.0550178273  MEMB      184             0.0000000000
     21244       184  OSM       H14C          -26.4173278843       29.5866984319      -20.7734837574  MEMB      184             0.0000000000
     21245       184  OSM       C13           -26.1158213318       31.8449204941      -23.3692873434  MEMB      184             0.0000000000
     21246       184  OSM       H13A          -26.8708730863       32.5179951451      -23.7477941504  MEMB      184             0.0000000000
     21247       184  OSM       H13B          -25.7474077484       31.2292728318      -24.1765355712  MEMB      184             0.0000000000
     21248       184  OSM       H13C          -25.3441672115       32.4000888456      -22.8567076576  MEMB      184             0.0000000000
     21249       184  OSM       C12           -27.7626930889       31.7683505129      -21.5068759511  MEMB      184             0.0000000000
     21250       184  OSM       H12A          -28.5191738784       32.1017464181      -22.2018464965  MEMB      184             0.0000000000
     21251       184  OSM       H12B          -27.2722229439       32.6823589843      -21.2061638643  MEMB      184             0.0000000000
     21252       184  OSM       C11           -28.3198348129       31.1126736444      -20.2029274297  MEMB      184             0.0000000000
     21253       184  OSM       H11A          -29.1248470371       31.7519130362      -19.7814428454  MEMB      184             0.0000000000
     21254       184  OSM       H11B          -27.4801821686       30.9528478069      -19.4931667247  MEMB      184             0.0000000000
     21255       184  OSM       P             -29.0053900851       28.5161335148      -19.9037253290  MEMB      184             0.0000000000
     21256       184  OSM       O13           -29.8333472500       27.6369363800      -20.7453294823  MEMB      184             0.0000000000
     21257       184  OSM       O14           -27.6124050316       28.0142090281      -19.6328556878  MEMB      184             0.0000000000
     21258       184  OSM       O11           -29.6849044071       28.6695268598      -18.5091126724  MEMB      184             0.0000000000
     21259       184  OSM       O12           -29.0633187660       29.9801856471      -20.4824746215  MEMB      184             0.0000000000
     21260       184  OSM       C1S           -29.7398761109       27.6574467453      -17.5179534011  MEMB      184             0.0000000000
     21261       184  OSM       H1S           -28.7997870936       27.0746884535      -17.4133281209  MEMB      184             0.0000000000
     21262       184  OSM       H1T           -30.5714331753       26.9575410814      -17.7480964985  MEMB      184             0.0000000000
     21263       184  OSM       NF            -29.5452420286       27.3146494402      -15.1446233290  MEMB      184             0.0000000000
     21264       184  OSM       HNF           -30.3203442770       26.9347689133      -14.6457085506  MEMB      184             0.0000000000
     21265       184  OSM       C2S           -29.9480737850       28.2920301424      -16.1039246855  MEMB      184             0.0000000000
     21266       184  OSM       H2S           -29.3222579449       29.2078879539      -16.0416343043  MEMB      184             0.0000000000
     21267       184  OSM       C3S           -31.4407954681       28.6188652927      -16.0197198416  MEMB      184             0.0000000000
     21268       184  OSM       H3S           -32.0368864241       27.6825651729      -16.0680800808  MEMB      184             0.0000000000
     21269       184  OSM       O3            -31.8055519127       29.4579045366      -17.0425420579  MEMB      184             0.0000000000
     21270       184  OSM       HO3           -31.0393722671       29.6945149336      -17.5703528501  MEMB      184             0.0000000000
     21271       184  OSM       C4S           -31.6831000259       29.2464361864      -14.7311158961  MEMB      184             0.0000000000
     21272       184  OSM       H4S           -31.1649081792       30.2088943322      -14.6080242535  MEMB      184             0.0000000000
     21273       184  OSM       C5S           -32.3044237592       28.6283805416      -13.7160910579  MEMB      184             0.0000000000
     21274       184  OSM       H5S           -32.7287594923       27.6435156169      -13.9609995960  MEMB      184             0.0000000000
     21275       184  OSM       C6S           -32.5340892714       29.3663899027      -12.4105715803  MEMB      184             0.0000000000
     21276       184  OSM       H6S           -33.6362177935       29.4953331027      -12.3557243516  MEMB      184             0.0000000000
     21277       184  OSM       H6T           -32.0827793798       30.3790061035      -12.3381225543  MEMB      184             0.0000000000
     21278       184  OSM       C7S           -32.0127710097       28.6851143149      -11.1460699330  MEMB      184             0.0000000000
     21279       184  OSM       H7S           -30.9034911807       28.6238084087      -11.1382623010  MEMB      184             0.0000000000
     21280       184  OSM       H7T           -32.4418179937       27.6604576493      -11.1282296002  MEMB      184             0.0000000000
     21281       184  OSM       C8S           -32.4991912127       29.3534366889       -9.8443003268  MEMB      184             0.0000000000
     21282       184  OSM       H8S           -33.5788502882       29.0918027798       -9.8299762801  MEMB      184             0.0000000000
     21283       184  OSM       H8T           -32.2779884434       30.4387047662       -9.9313833585  MEMB      184             0.0000000000
     21284       184  OSM       C9S           -32.0350592181       28.7455844920       -8.4729564721  MEMB      184             0.0000000000
     21285       184  OSM       H9S           -32.3734372318       27.7239976240       -8.1969459502  MEMB      184             0.0000000000
     21286       184  OSM       H9T           -32.5575175718       29.3613352390       -7.7099302142  MEMB      184             0.0000000000
     21287       184  OSM       C10S          -30.4640606843       28.7040421439       -8.4029807722  MEMB      184             0.0000000000
     21288       184  OSM       H10S          -29.9742519177       28.2848037891       -9.3077724061  MEMB      184             0.0000000000
     21289       184  OSM       H10T          -30.1429609737       28.1332352495       -7.5055422569  MEMB      184             0.0000000000
     21290       184  OSM       C11S          -29.8191825492       30.1106037415       -8.1726627417  MEMB      184             0.0000000000
     21291       184  OSM       H11S          -30.0471539782       30.7321867833       -9.0648423406  MEMB      184             0.0000000000
     21292       184  OSM       H11T          -28.7807057575       29.7892385744       -7.9432913241  MEMB      184             0.0000000000
     21293       184  OSM       C12S          -30.2855785657       30.8384489094       -6.8158355453  MEMB      184             0.0000000000
     21294       184  OSM       H12S          -31.3715433673       31.0571502443       -6.9005178558  MEMB      184             0.0000000000
     21295       184  OSM       H12T          -29.7903320746       31.8321569395       -6.7758820101  MEMB      184             0.0000000000
     21296       184  OSM       C13S          -30.0508467565       29.9850926952       -5.6072037345  MEMB      184             0.0000000000
     21297       184  OSM       H13S          -28.9861148750       29.6730946920       -5.5495467275  MEMB      184             0.0000000000
     21298       184  OSM       H13T          -30.6639303558       29.0611173821       -5.6758991303  MEMB      184             0.0000000000
     21299       184  OSM       C14S          -30.4900988693       30.7315385563       -4.3815941564  MEMB      184             0.0000000000
     21300       184  OSM       H14S          -30.5464774544       30.0041209750       -3.5437370588  MEMB      184             0.0000000000
     21301       184  OSM       H14T          -31.4905066168       31.2066533664       -4.4697504100  MEMB      184             0.0000000000
     21302       184  OSM       C15S          -29.5824227156       31.8471360867       -3.8544815665  MEMB      184             0.0000000000
     21303       184  OSM       H15S          -30.1066660160       32.3482329840       -3.0128206610  MEMB      184             0.0000000000
     21304       184  OSM       H15T          -29.3568711282       32.6308021470       -4.6090102663  MEMB      184             0.0000000000
     21305       184  OSM       C16S          -28.2598891225       31.4318716629       -3.3191868666  MEMB      184             0.0000000000
     21306       184  OSM       H16S          -27.8543063855       30.7578269069       -4.1037168013  MEMB      184             0.0000000000
     21307       184  OSM       H16T          -28.3680264902       30.9773663014       -2.3111928277  MEMB      184             0.0000000000
     21308       184  OSM       C17S          -27.3058581933       32.5534441600       -3.1689459261  MEMB      184             0.0000000000
     21309       184  OSM       H17S          -27.1787810992       33.0380753443       -4.1605613976  MEMB      184             0.0000000000
     21310       184  OSM       H17T          -26.3492832099       32.0405705051       -2.9317827342  MEMB      184             0.0000000000
     21311       184  OSM       C18S          -27.6318058698       33.5240430059       -2.0546389475  MEMB      184             0.0000000000
     21312       184  OSM       H18S          -28.7002606026       33.8280977598       -2.0712541871  MEMB      184             0.0000000000
     21313       184  OSM       H18T          -27.0392634289       34.4571117245       -1.9424011246  MEMB      184             0.0000000000
     21314       184  OSM       H18U          -27.4982645854       32.9725229886       -1.0994881260  MEMB      184             0.0000000000
     21315       184  OSM       C1F           -28.2423082846       27.0980125281      -14.7899948162  MEMB      184             0.0000000000
     21316       184  OSM       OF            -27.2718700822       27.6277033239      -15.3698296007  MEMB      184             0.0000000000
     21317       184  OSM       C2F           -28.0521872511       26.2839933470      -13.5154873235  MEMB      184             0.0000000000
     21318       184  OSM       H2F           -27.9939168386       25.2210237600      -13.8333257983  MEMB      184             0.0000000000
     21319       184  OSM       H2G           -28.9923466847       26.4216495247      -12.9397513827  MEMB      184             0.0000000000
     21320       184  OSM       C3F           -26.9103447106       26.8192242261      -12.7030367654  MEMB      184             0.0000000000
     21321       184  OSM       H3F           -26.0023875061       27.0984802428      -13.2791883659  MEMB      184             0.0000000000
     21322       184  OSM       H3G           -26.5383168978       25.9957904415      -12.0566050948  MEMB      184             0.0000000000
     21323       184  OSM       C4F           -27.3157205152       28.1556380069      -11.9403457921  MEMB      184             0.0000000000
     21324       184  OSM       H4F           -28.3343352897       28.2342291322      -11.5038040014  MEMB      184             0.0000000000
     21325       184  OSM       H4G           -27.2453451230       28.9039840299      -12.7584817641  MEMB      184             0.0000000000
     21326       184  OSM       C5F           -26.2094576944       28.5432246031      -11.0400509501  MEMB      184             0.0000000000
     21327       184  OSM       H5F           -25.3170122066       28.5910244049      -11.7000329898  MEMB      184             0.0000000000
     21328       184  OSM       H5G           -25.8978195597       27.7749359203      -10.3005005801  MEMB      184             0.0000000000
     21329       184  OSM       C6F           -26.3952182598       30.0383907677      -10.4760177933  MEMB      184             0.0000000000
     21330       184  OSM       H6F           -27.3583609034       30.0691510566       -9.9230878792  MEMB      184             0.0000000000
     21331       184  OSM       H6G           -26.3590387202       30.8053126546      -11.2790387408  MEMB      184             0.0000000000
     21332       184  OSM       C7F           -25.2874234421       30.4345604790       -9.5196443088  MEMB      184             0.0000000000
     21333       184  OSM       H7F           -24.3642615154       30.4327469524      -10.1377780523  MEMB      184             0.0000000000
     21334       184  OSM       H7G           -25.1552865166       29.6254191504       -8.7698773477  MEMB      184             0.0000000000
     21335       184  OSM       C8F           -25.3282586686       31.7427855147       -8.8597449839  MEMB      184             0.0000000000
     21336       184  OSM       H8F           -25.5699449299       32.4700064624       -9.6641447910  MEMB      184             0.0000000000
     21337       184  OSM       H8G           -24.4046790800       32.0191619028       -8.3075336572  MEMB      184             0.0000000000
     21338       184  OSM       C9F           -26.3804255950       31.8505848593       -7.8290207073  MEMB      184             0.0000000000
     21339       184  OSM       H9F           -27.1078374902       32.6301323033       -8.0995345119  MEMB      184             0.0000000000
     21340       184  OSM       C10F          -26.5468127701       31.2489579455       -6.6693470500  MEMB      184             0.0000000000
     21341       184  OSM       H10F          -27.4174399970       31.4285389207       -6.0214584560  MEMB      184             0.0000000000
     21342       184  OSM       C11F          -25.5019824830       30.2088589572       -6.1767588470  MEMB      184             0.0000000000
     21343       184  OSM       H11F          -25.3318574941       30.4154155799       -5.0984668450  MEMB      184             0.0000000000
     21344       184  OSM       H11G          -24.5291703433       30.2150619454       -6.7133396054  MEMB      184             0.0000000000
     21345       184  OSM       C12F          -26.0631918783       28.7363688072       -6.4031339734  MEMB      184             0.0000000000
     21346       184  OSM       H12F          -26.3061114740       28.5298457145       -7.4673982874  MEMB      184             0.0000000000
     21347       184  OSM       H12G          -26.9365957028       28.6235194539       -5.7258217106  MEMB      184             0.0000000000
     21348       184  OSM       C13F          -25.1290270577       27.6046808884       -5.9471238564  MEMB      184             0.0000000000
     21349       184  OSM       H13F          -24.7919221083       27.7425503555       -4.8975175364  MEMB      184             0.0000000000
     21350       184  OSM       H13G          -24.2422900703       27.4196033390       -6.5903689451  MEMB      184             0.0000000000
     21351       184  OSM       C14F          -25.8808414022       26.2052755523       -5.8870404484  MEMB      184             0.0000000000
     21352       184  OSM       H14F          -25.2423051050       25.3242381235       -6.1114622257  MEMB      184             0.0000000000
     21353       184  OSM       H14G          -26.6254164701       26.3204777314       -6.7035308075  MEMB      184             0.0000000000
     21354       184  OSM       C15F          -26.6763769540       25.9442687350       -4.5159484682  MEMB      184             0.0000000000
     21355       184  OSM       H15F          -26.9459707709       26.8923941899       -4.0034070980  MEMB      184             0.0000000000
     21356       184  OSM       H15G          -25.8460778466       25.4791514365       -3.9427211771  MEMB      184             0.0000000000
     21357       184  OSM       C16F          -27.8133519019       24.9675112614       -4.6901615909  MEMB      184             0.0000000000
     21358       184  OSM       H16F          -27.5106101513       24.0668170060       -5.2658516498  MEMB      184             0.0000000000
     21359       184  OSM       H16G          -28.6103647407       25.3711538905       -5.3505891846  MEMB      184             0.0000000000
     21360       184  OSM       C17F          -28.4461511631       24.4814479144       -3.3646674176  MEMB      184             0.0000000000
     21361       184  OSM       H17F          -27.6791757396       23.8726129127       -2.8398912431  MEMB      184             0.0000000000
     21362       184  OSM       H17G          -29.3982140264       23.9561300720       -3.5925687958  MEMB      184             0.0000000000
     21363       184  OSM       C18F          -29.0600964698       25.4925444605       -2.3743599042  MEMB      184             0.0000000000
     21364       184  OSM       H18F          -29.6813076317       24.8824473022       -1.6842869433  MEMB      184             0.0000000000
     21365       184  OSM       H18G          -29.7398552029       26.2358100995       -2.8431928539  MEMB      184             0.0000000000
     21366       184  OSM       H18H          -28.4362802848       26.0570975849       -1.6487878341  MEMB      184             0.0000000000
     21367       185  SAPE      N              32.7009196760       29.2279892450      -18.9017540577  MEMB      185             0.0000000000
     21368       185  SAPE      HN1            32.5647535721       29.8393161171      -19.7320180338  MEMB      185             0.0000000000
     21369       185  SAPE      HN2            33.3588367248       29.6210297722      -18.1987146143  MEMB      185             0.0000000000
     21370       185  SAPE      HN3            32.9776803642       28.2571015075      -19.1515146330  MEMB      185             0.0000000000
     21371       185  SAPE      C12            31.3739893771       29.1396129521      -18.1367453687  MEMB      185             0.0000000000
     21372       185  SAPE      H12A           31.2339558604       30.1735473925      -17.7550502348  MEMB      185             0.0000000000
     21373       185  SAPE      H12B           31.6197525875       28.4073018266      -17.3382204609  MEMB      185             0.0000000000
     21374       185  SAPE      C11            30.1838527243       28.7682141533      -18.9605639880  MEMB      185             0.0000000000
     21375       185  SAPE      H11A           29.3220403998       28.6072023118      -18.2781595857  MEMB      185             0.0000000000
     21376       185  SAPE      H11B           30.3074880655       27.7581306838      -19.4063964419  MEMB      185             0.0000000000
     21377       185  SAPE      P              28.8032375706       29.8074504173      -20.8338087832  MEMB      185             0.0000000000
     21378       185  SAPE      O13            29.2612830359       28.9952813890      -21.9899280045  MEMB      185             0.0000000000
     21379       185  SAPE      O14            27.5974662468       29.3299142974      -20.1099551578  MEMB      185             0.0000000000
     21380       185  SAPE      O12            30.0382972071       29.8365912368      -19.8609762367  MEMB      185             0.0000000000
     21381       185  SAPE      O11            28.5266229586       31.3557231134      -21.2062684421  MEMB      185             0.0000000000
     21382       185  SAPE      C1             29.6501080772       32.2012899698      -21.4744510211  MEMB      185             0.0000000000
     21383       185  SAPE      HA             30.5685128875       31.6460250288      -21.7617391367  MEMB      185             0.0000000000
     21384       185  SAPE      HB             29.6124876005       32.7738094070      -22.4258326591  MEMB      185             0.0000000000
     21385       185  SAPE      C2             29.8710796387       33.4232894157      -20.4692689352  MEMB      185             0.0000000000
     21386       185  SAPE      HS             30.5609216834       34.1274911229      -20.9816548742  MEMB      185             0.0000000000
     21387       185  SAPE      O21            30.3793829036       33.0436206319      -19.2119132840  MEMB      185             0.0000000000
     21388       185  SAPE      C21            30.8327805834       34.0766065234      -18.5037417149  MEMB      185             0.0000000000
     21389       185  SAPE      O22            31.3183511673       35.1617485886      -18.8720294462  MEMB      185             0.0000000000
     21390       185  SAPE      C22            30.7462235899       33.6478551494      -17.0253889100  MEMB      185             0.0000000000
     21391       185  SAPE      H2R            30.1969167266       32.7001526357      -16.8398007401  MEMB      185             0.0000000000
     21392       185  SAPE      H2S            31.7543185873       33.5753554832      -16.5640765393  MEMB      185             0.0000000000
     21393       185  SAPE      C3             28.5119816046       34.2260670116      -20.2363411366  MEMB      185             0.0000000000
     21394       185  SAPE      HX             28.2641566749       34.5837190450      -21.2585881439  MEMB      185             0.0000000000
     21395       185  SAPE      HY             28.7628547327       35.1411028624      -19.6583333374  MEMB      185             0.0000000000
     21396       185  SAPE      O31            27.5866506439       33.2974134223      -19.6772384202  MEMB      185             0.0000000000
     21397       185  SAPE      C31            27.0000695597       33.5004640388      -18.5081299254  MEMB      185             0.0000000000
     21398       185  SAPE      O32            27.0526217023       34.5774489633      -17.8847686642  MEMB      185             0.0000000000
     21399       185  SAPE      C32            26.1004732680       32.2639033850      -18.2111479603  MEMB      185             0.0000000000
     21400       185  SAPE      H2X            26.4447693423       31.3512855670      -18.7430406615  MEMB      185             0.0000000000
     21401       185  SAPE      H2Y            25.1464293984       32.5490916272      -18.7038847483  MEMB      185             0.0000000000
     21402       185  SAPE      C23            30.0012571213       34.7344532887      -16.1173877915  MEMB      185             0.0000000000
     21403       185  SAPE      H3R            28.9438078342       34.5751178152      -16.4186087511  MEMB      185             0.0000000000
     21404       185  SAPE      H3S            30.2753601220       35.7763341521      -16.3888149052  MEMB      185             0.0000000000
     21405       185  SAPE      C24            30.2235111034       34.5910421592      -14.6360139029  MEMB      185             0.0000000000
     21406       185  SAPE      H4R            29.6537569288       35.4148587204      -14.1553610341  MEMB      185             0.0000000000
     21407       185  SAPE      H4S            31.2783461517       34.8607768400      -14.4149096753  MEMB      185             0.0000000000
     21408       185  SAPE      C25            29.8712475528       33.3234869695      -13.8980905321  MEMB      185             0.0000000000
     21409       185  SAPE      H5R            28.7951097506       33.0984928062      -13.8619674085  MEMB      185             0.0000000000
     21410       185  SAPE      C26            30.6767956736       32.4728712324      -13.2156215859  MEMB      185             0.0000000000
     21411       185  SAPE      H6R            30.2656683111       31.6004618415      -12.6865885971  MEMB      185             0.0000000000
     21412       185  SAPE      C27            32.1732725553       32.7371879640      -13.2059364019  MEMB      185             0.0000000000
     21413       185  SAPE      H7R            32.4039017870       33.3997372588      -12.3444492832  MEMB      185             0.0000000000
     21414       185  SAPE      H7S            32.4676799730       33.3008539450      -14.1169392898  MEMB      185             0.0000000000
     21415       185  SAPE      C28            33.0356597863       31.5540071404      -12.9641927537  MEMB      185             0.0000000000
     21416       185  SAPE      H8R            33.4210465267       31.1084784919      -13.8931608748  MEMB      185             0.0000000000
     21417       185  SAPE      C29            33.2959958830       30.9257390793      -11.8250311602  MEMB      185             0.0000000000
     21418       185  SAPE      H9R            34.0323886163       30.1102135707      -11.7736191390  MEMB      185             0.0000000000
     21419       185  SAPE      C210           32.7317682253       31.2746942404      -10.4378852434  MEMB      185             0.0000000000
     21420       185  SAPE      H10R           32.4920088066       32.3539878676      -10.3285171830  MEMB      185             0.0000000000
     21421       185  SAPE      H10S           33.5001576307       31.2147016904       -9.6376985560  MEMB      185             0.0000000000
     21422       185  SAPE      C211           31.4994191970       30.5586326113       -9.8978414654  MEMB      185             0.0000000000
     21423       185  SAPE      H11R           30.6049300943       30.6017293666      -10.5366152562  MEMB      185             0.0000000000
     21424       185  SAPE      C212           31.4024599555       29.8514947502       -8.7582257837  MEMB      185             0.0000000000
     21425       185  SAPE      H12R           30.4519491682       29.3198154101       -8.6038035300  MEMB      185             0.0000000000
     21426       185  SAPE      C213           32.3934312503       29.5538987288       -7.6949105296  MEMB      185             0.0000000000
     21427       185  SAPE      H13R           33.3991115617       29.7829213856       -8.1078003885  MEMB      185             0.0000000000
     21428       185  SAPE      H13S           32.4166069673       28.4591093553       -7.5072399044  MEMB      185             0.0000000000
     21429       185  SAPE      C214           32.0359556275       30.3311630343       -6.4307642963  MEMB      185             0.0000000000
     21430       185  SAPE      H14R           32.4646392296       31.3435760628       -6.3954082297  MEMB      185             0.0000000000
     21431       185  SAPE      C215           31.4354324683       29.8078879008       -5.3407137085  MEMB      185             0.0000000000
     21432       185  SAPE      H15R           31.2745214030       30.5233419949       -4.5208160794  MEMB      185             0.0000000000
     21433       185  SAPE      C216           31.0636102354       28.3264503328       -5.1321540579  MEMB      185             0.0000000000
     21434       185  SAPE      H16R           31.8339678394       27.8583774764       -4.4827095551  MEMB      185             0.0000000000
     21435       185  SAPE      H16S           31.0010627355       27.7504414128       -6.0801108779  MEMB      185             0.0000000000
     21436       185  SAPE      C217           29.5934222747       28.1464319293       -4.6770402001  MEMB      185             0.0000000000
     21437       185  SAPE      H17R           29.4264215121       27.0798045915       -4.4148606320  MEMB      185             0.0000000000
     21438       185  SAPE      H17S           29.0322672794       28.5265511268       -5.5573440446  MEMB      185             0.0000000000
     21439       185  SAPE      C218           29.1581074234       28.9773196682       -3.4545774217  MEMB      185             0.0000000000
     21440       185  SAPE      H18R           28.1829691913       28.5521079417       -3.1342328064  MEMB      185             0.0000000000
     21441       185  SAPE      H18S           29.0976834131       30.0568200753       -3.7102127425  MEMB      185             0.0000000000
     21442       185  SAPE      C219           30.0778193259       28.7599973918       -2.2409353822  MEMB      185             0.0000000000
     21443       185  SAPE      H19R           31.0930390070       29.2054438367       -2.3132380781  MEMB      185             0.0000000000
     21444       185  SAPE      H19S           30.1647702899       27.6608594932       -2.1043477759  MEMB      185             0.0000000000
     21445       185  SAPE      C220           29.3976052637       29.4065101736       -0.9518072213  MEMB      185             0.0000000000
     21446       185  SAPE      H20R           29.8201479367       29.0019155886       -0.0073062978  MEMB      185             0.0000000000
     21447       185  SAPE      H20S           28.3175736028       29.1467575157       -0.9322843254  MEMB      185             0.0000000000
     21448       185  SAPE      H20T           29.4156771599       30.5167256571       -0.9141867089  MEMB      185             0.0000000000
     21449       185  SAPE      C33            25.9899603984       32.1605153345      -16.6232745281  MEMB      185             0.0000000000
     21450       185  SAPE      H3X            25.0099905948       31.6744381251      -16.4290872989  MEMB      185             0.0000000000
     21451       185  SAPE      H3Y            26.0014515892       33.1723308768      -16.1645613442  MEMB      185             0.0000000000
     21452       185  SAPE      C34            27.0955174074       31.3185519795      -15.9459410809  MEMB      185             0.0000000000
     21453       185  SAPE      H4X            28.1173710577       31.6797600727      -16.1902049364  MEMB      185             0.0000000000
     21454       185  SAPE      H4Y            27.1201329281       30.2927936033      -16.3720098251  MEMB      185             0.0000000000
     21455       185  SAPE      C35            26.8550405919       31.1329447496      -14.4333624027  MEMB      185             0.0000000000
     21456       185  SAPE      H5X            25.8669922183       30.6885781502      -14.1871513763  MEMB      185             0.0000000000
     21457       185  SAPE      H5Y            26.8821736499       32.0702311882      -13.8374772713  MEMB      185             0.0000000000
     21458       185  SAPE      C36            27.9087748489       30.1295793322      -13.9329903770  MEMB      185             0.0000000000
     21459       185  SAPE      H6X            28.9217386708       30.3874346579      -14.3094685944  MEMB      185             0.0000000000
     21460       185  SAPE      H6Y            27.6613444148       29.1373197587      -14.3671793079  MEMB      185             0.0000000000
     21461       185  SAPE      C37            27.9517054817       30.0756537107      -12.5367874334  MEMB      185             0.0000000000
     21462       185  SAPE      H7X            28.2658048181       31.0624208267      -12.1343532378  MEMB      185             0.0000000000
     21463       185  SAPE      H7Y            28.6428994701       29.2555538305      -12.2469461669  MEMB      185             0.0000000000
     21464       185  SAPE      C38            26.5904178555       29.7539342403      -11.8845226497  MEMB      185             0.0000000000
     21465       185  SAPE      H8X            26.1258959897       28.9001982761      -12.4227373393  MEMB      185             0.0000000000
     21466       185  SAPE      H8Y            25.8410563741       30.5640018375      -12.0132425169  MEMB      185             0.0000000000
     21467       185  SAPE      C39            26.7226555222       29.3664147152      -10.4227178088  MEMB      185             0.0000000000
     21468       185  SAPE      H9X            27.4897872582       28.5627910113      -10.4183078232  MEMB      185             0.0000000000
     21469       185  SAPE      H9Y            25.7805679294       28.9145192725      -10.0451177842  MEMB      185             0.0000000000
     21470       185  SAPE      C310           27.2007968839       30.5133277659       -9.5199956572  MEMB      185             0.0000000000
     21471       185  SAPE      H10X           26.5142110994       31.3750255808       -9.6628170130  MEMB      185             0.0000000000
     21472       185  SAPE      H10Y           28.1880623672       30.8528392890       -9.8999431155  MEMB      185             0.0000000000
     21473       185  SAPE      C311           27.2737863798       30.3206201946       -8.0509327671  MEMB      185             0.0000000000
     21474       185  SAPE      H11X           27.6781735663       29.3015162544       -7.8714358572  MEMB      185             0.0000000000
     21475       185  SAPE      H11Y           26.2111489585       30.4288119249       -7.7452894988  MEMB      185             0.0000000000
     21476       185  SAPE      C312           28.1513863234       31.3973076259       -7.3299122682  MEMB      185             0.0000000000
     21477       185  SAPE      H12X           29.2204350686       31.1483256300       -7.5015630771  MEMB      185             0.0000000000
     21478       185  SAPE      H12Y           27.9760097254       31.1624832905       -6.2582683003  MEMB      185             0.0000000000
     21479       185  SAPE      C313           27.7252591944       32.8275111644       -7.6036559636  MEMB      185             0.0000000000
     21480       185  SAPE      H13X           26.6221965452       32.9586540736       -7.5842821222  MEMB      185             0.0000000000
     21481       185  SAPE      H13Y           28.0211447066       33.1550144721       -8.6232211600  MEMB      185             0.0000000000
     21482       185  SAPE      C314           28.3078052999       33.9019319590       -6.6154311279  MEMB      185             0.0000000000
     21483       185  SAPE      H14X           27.6610581246       33.9839577146       -5.7158150446  MEMB      185             0.0000000000
     21484       185  SAPE      H14Y           28.1356639914       34.8456946975       -7.1757889905  MEMB      185             0.0000000000
     21485       185  SAPE      C315           29.8092471970       33.8362746860       -6.4314384381  MEMB      185             0.0000000000
     21486       185  SAPE      H15X           30.1735303549       34.1593173852       -7.4300690881  MEMB      185             0.0000000000
     21487       185  SAPE      H15Y           30.1721571959       32.8083574068       -6.2169540172  MEMB      185             0.0000000000
     21488       185  SAPE      C316           30.3556284473       34.7882821382       -5.3751868979  MEMB      185             0.0000000000
     21489       185  SAPE      H16X           29.4986486914       35.0133292193       -4.7049180760  MEMB      185             0.0000000000
     21490       185  SAPE      H16Y           30.4831568900       35.7559515487       -5.9059159644  MEMB      185             0.0000000000
     21491       185  SAPE      C317           31.5695624573       34.2452775820       -4.6248290137  MEMB      185             0.0000000000
     21492       185  SAPE      H17X           32.0346426588       35.1835300187       -4.2537447813  MEMB      185             0.0000000000
     21493       185  SAPE      H17Y           32.4119777449       33.8234361418       -5.2136466814  MEMB      185             0.0000000000
     21494       185  SAPE      C318           31.2595568433       33.2958462076       -3.4262997521  MEMB      185             0.0000000000
     21495       185  SAPE      H18X           30.6019643024       32.5274672800       -3.8861770239  MEMB      185             0.0000000000
     21496       185  SAPE      H18Y           30.7125292591       33.8669234903       -2.6459445434  MEMB      185             0.0000000000
     21497       185  SAPE      H18Z           32.0919501006       32.8494910654       -2.8413125979  MEMB      185             0.0000000000
     21498       186  OSM       N             -31.6677290349      -26.1999557345      -23.1683001086  MEMB      186             0.0000000000
     21499       186  OSM       C15           -30.3723107398      -25.9632573087      -22.3349956090  MEMB      186             0.0000000000
     21500       186  OSM       H15A          -29.5114797250      -25.8454878887      -22.9764784754  MEMB      186             0.0000000000
     21501       186  OSM       H15B          -30.2306735804      -26.8019810231      -21.6695021796  MEMB      186             0.0000000000
     21502       186  OSM       H15C          -30.4579780586      -25.1396635628      -21.6416311255  MEMB      186             0.0000000000
     21503       186  OSM       C14           -31.9079588338      -25.1306012850      -24.2064209872  MEMB      186             0.0000000000
     21504       186  OSM       H14A          -32.7546140758      -25.4378007606      -24.8024106075  MEMB      186             0.0000000000
     21505       186  OSM       H14B          -31.1027327322      -24.8995785784      -24.8880654641  MEMB      186             0.0000000000
     21506       186  OSM       H14C          -32.3182989550      -24.2629947130      -23.7111636994  MEMB      186             0.0000000000
     21507       186  OSM       C13           -31.5104620723      -27.5384433182      -23.7499298650  MEMB      186             0.0000000000
     21508       186  OSM       H13A          -32.4013192660      -27.7298257462      -24.3297112203  MEMB      186             0.0000000000
     21509       186  OSM       H13B          -31.2920262829      -28.2154305704      -22.9372958190  MEMB      186             0.0000000000
     21510       186  OSM       H13C          -30.7399706920      -27.6124061102      -24.5031050820  MEMB      186             0.0000000000
     21511       186  OSM       C12           -32.8942462989      -26.2530532371      -22.2447016773  MEMB      186             0.0000000000
     21512       186  OSM       H12A          -33.7564300407      -26.3429342363      -22.8888760153  MEMB      186             0.0000000000
     21513       186  OSM       H12B          -32.9779139891      -25.2798957694      -21.7838718407  MEMB      186             0.0000000000
     21514       186  OSM       C11           -33.2274878930      -27.3738725728      -21.2236011236  MEMB      186             0.0000000000
     21515       186  OSM       H11A          -33.3196913429      -28.3484137875      -21.7490428091  MEMB      186             0.0000000000
     21516       186  OSM       H11B          -34.1794442293      -27.1952398508      -20.6793672425  MEMB      186             0.0000000000
     21517       186  OSM       P             -32.4481905461      -27.9513065419      -18.7598357952  MEMB      186             0.0000000000
     21518       186  OSM       O13           -33.2116741974      -29.1873219258      -18.7112742892  MEMB      186             0.0000000000
     21519       186  OSM       O14           -31.1525683643      -27.9173159127      -17.9375242322  MEMB      186             0.0000000000
     21520       186  OSM       O11           -33.3323644578      -26.7317127862      -18.3502593411  MEMB      186             0.0000000000
     21521       186  OSM       O12           -32.1302092608      -27.6299770839      -20.3131569672  MEMB      186             0.0000000000
     21522       186  OSM       C1S           -32.9853735918      -25.4973575045      -17.7427527863  MEMB      186             0.0000000000
     21523       186  OSM       H1S           -33.2437249079      -24.7110646368      -18.4839131499  MEMB      186             0.0000000000
     21524       186  OSM       H1T           -31.9063634185      -25.3859404773      -17.5026602279  MEMB      186             0.0000000000
     21525       186  OSM       NF            -33.2403108278      -26.5401277008      -15.5582044230  MEMB      186             0.0000000000
     21526       186  OSM       HNF           -33.9134912061      -27.2755438333      -15.5586659065  MEMB      186             0.0000000000
     21527       186  OSM       C2S           -33.6810686392      -25.4052632458      -16.3838015583  MEMB      186             0.0000000000
     21528       186  OSM       H2S           -33.2744524600      -24.4581429571      -15.9691359204  MEMB      186             0.0000000000
     21529       186  OSM       C3S           -35.2499814087      -25.3479002484      -16.4872613191  MEMB      186             0.0000000000
     21530       186  OSM       H3S           -35.6501401063      -26.2468681765      -17.0030625027  MEMB      186             0.0000000000
     21531       186  OSM       O3            -35.5540342698      -24.1781782236      -17.2872390648  MEMB      186             0.0000000000
     21532       186  OSM       HO3           -34.7210947303      -23.7036268296      -17.3383532565  MEMB      186             0.0000000000
     21533       186  OSM       C4S           -35.8747870546      -25.3343184179      -15.0929833914  MEMB      186             0.0000000000
     21534       186  OSM       H4S           -36.2668187661      -26.3156586171      -14.7875608007  MEMB      186             0.0000000000
     21535       186  OSM       C5S           -35.8723540435      -24.3604121336      -14.1416942019  MEMB      186             0.0000000000
     21536       186  OSM       H5S           -35.4678336491      -23.3547773849      -14.3289433260  MEMB      186             0.0000000000
     21537       186  OSM       C6S           -36.5229015598      -24.3885213842      -12.7659081199  MEMB      186             0.0000000000
     21538       186  OSM       H6S           -37.5000105001      -23.8621476889      -12.8160075513  MEMB      186             0.0000000000
     21539       186  OSM       H6T           -35.8691148720      -23.9680138544      -11.9721461505  MEMB      186             0.0000000000
     21540       186  OSM       C7S           -36.7876432244      -25.8765951835      -12.2814774248  MEMB      186             0.0000000000
     21541       186  OSM       H7S           -35.8749105142      -26.4866943944      -12.4518262570  MEMB      186             0.0000000000
     21542       186  OSM       H7T           -37.5372207665      -26.1770257841      -13.0444947763  MEMB      186             0.0000000000
     21543       186  OSM       C8S           -37.3838396847      -25.9254832284      -10.8594941144  MEMB      186             0.0000000000
     21544       186  OSM       H8S           -37.9445482214      -26.8592974407      -10.6405915579  MEMB      186             0.0000000000
     21545       186  OSM       H8T           -38.0703986970      -25.0626192504      -10.7237600235  MEMB      186             0.0000000000
     21546       186  OSM       C9S           -36.2587713681      -25.9747774433       -9.6937814568  MEMB      186             0.0000000000
     21547       186  OSM       H9S           -36.8426588899      -25.9952449851       -8.7488064922  MEMB      186             0.0000000000
     21548       186  OSM       H9T           -35.7174098243      -25.0089129500       -9.7851835924  MEMB      186             0.0000000000
     21549       186  OSM       C10S          -35.2110453813      -27.0907278747       -9.5834820082  MEMB      186             0.0000000000
     21550       186  OSM       H10S          -34.6523229640      -27.1530944051      -10.5417411933  MEMB      186             0.0000000000
     21551       186  OSM       H10T          -35.7869139728      -28.0271990466       -9.4231139862  MEMB      186             0.0000000000
     21552       186  OSM       C11S          -34.1950145536      -27.0861185995       -8.3776159765  MEMB      186             0.0000000000
     21553       186  OSM       H11S          -33.2750476822      -27.6644981461       -8.6088276686  MEMB      186             0.0000000000
     21554       186  OSM       H11T          -34.7673722494      -27.5794540175       -7.5631538370  MEMB      186             0.0000000000
     21555       186  OSM       C12S          -33.6665132809      -25.6868280179       -7.8818075355  MEMB      186             0.0000000000
     21556       186  OSM       H12S          -34.5592994738      -25.0270773926       -7.9263400175  MEMB      186             0.0000000000
     21557       186  OSM       H12T          -32.9171494516      -25.2786037761       -8.5932345520  MEMB      186             0.0000000000
     21558       186  OSM       C13S          -33.2575330981      -25.6734174832       -6.4936176305  MEMB      186             0.0000000000
     21559       186  OSM       H13S          -32.1567308840      -25.5877887635       -6.3702341193  MEMB      186             0.0000000000
     21560       186  OSM       H13T          -33.3954284446      -26.6231699895       -5.9339064936  MEMB      186             0.0000000000
     21561       186  OSM       C14S          -34.0253532352      -24.6787888107       -5.6140534079  MEMB      186             0.0000000000
     21562       186  OSM       H14S          -35.0631521257      -24.5154291455       -5.9754511582  MEMB      186             0.0000000000
     21563       186  OSM       H14T          -33.5675210620      -23.6704349679       -5.7031224513  MEMB      186             0.0000000000
     21564       186  OSM       C15S          -34.0514656147      -25.1934668506       -4.1743581534  MEMB      186             0.0000000000
     21565       186  OSM       H15S          -34.3426679906      -26.2656234417       -4.1727090041  MEMB      186             0.0000000000
     21566       186  OSM       H15T          -34.8072048042      -24.5746733625       -3.6449481983  MEMB      186             0.0000000000
     21567       186  OSM       C16S          -32.7512175246      -25.0783255526       -3.4320052162  MEMB      186             0.0000000000
     21568       186  OSM       H16S          -32.2753406036      -24.1091225418       -3.6937438030  MEMB      186             0.0000000000
     21569       186  OSM       H16T          -32.0336708667      -25.8227857106       -3.8384861689  MEMB      186             0.0000000000
     21570       186  OSM       C17S          -32.9002286113      -25.3083666067       -1.9489577557  MEMB      186             0.0000000000
     21571       186  OSM       H17S          -33.0033024427      -26.4104608784       -1.8536433853  MEMB      186             0.0000000000
     21572       186  OSM       H17T          -33.8166378103      -24.8364799945       -1.5344251974  MEMB      186             0.0000000000
     21573       186  OSM       C18S          -31.7204065090      -24.8168605484       -1.0881000737  MEMB      186             0.0000000000
     21574       186  OSM       H18S          -32.0246205473      -24.9713173312       -0.0307826364  MEMB      186             0.0000000000
     21575       186  OSM       H18T          -31.4871894398      -23.7440931645       -1.2586901226  MEMB      186             0.0000000000
     21576       186  OSM       H18U          -30.9022802704      -25.5627642972       -1.1809318250  MEMB      186             0.0000000000
     21577       186  OSM       C1F           -31.9174775217      -26.7125670412      -15.1572127080  MEMB      186             0.0000000000
     21578       186  OSM       OF            -31.0245628811      -25.8776017153      -15.4242259738  MEMB      186             0.0000000000
     21579       186  OSM       C2F           -31.5584460200      -27.9160959050      -14.5258235746  MEMB      186             0.0000000000
     21580       186  OSM       H2F           -31.0671527599      -28.6080978045      -15.2428214214  MEMB      186             0.0000000000
     21581       186  OSM       H2G           -32.3998081300      -28.3995783353      -13.9848291317  MEMB      186             0.0000000000
     21582       186  OSM       C3F           -30.4464110002      -27.7198983235      -13.3717964756  MEMB      186             0.0000000000
     21583       186  OSM       H3F           -29.4827007824      -27.3206619111      -13.7541497568  MEMB      186             0.0000000000
     21584       186  OSM       H3G           -30.3292401642      -28.7839003444      -13.0743211543  MEMB      186             0.0000000000
     21585       186  OSM       C4F           -30.8799083657      -26.7871877730      -12.1526473721  MEMB      186             0.0000000000
     21586       186  OSM       H4F           -31.6201686817      -27.3963080418      -11.5911236348  MEMB      186             0.0000000000
     21587       186  OSM       H4G           -31.3434858082      -25.8235375606      -12.4539697307  MEMB      186             0.0000000000
     21588       186  OSM       C5F           -29.6349383650      -26.3948401922      -11.2327957294  MEMB      186             0.0000000000
     21589       186  OSM       H5F           -30.0263647224      -25.8130373906      -10.3710472773  MEMB      186             0.0000000000
     21590       186  OSM       H5G           -29.0707873406      -25.7614985412      -11.9503844653  MEMB      186             0.0000000000
     21591       186  OSM       C6F           -28.8232391885      -27.5663243703      -10.7197583146  MEMB      186             0.0000000000
     21592       186  OSM       H6F           -27.7992390689      -27.2674672858      -10.4092275845  MEMB      186             0.0000000000
     21593       186  OSM       H6G           -28.6785735381      -28.3005583143      -11.5409126493  MEMB      186             0.0000000000
     21594       186  OSM       C7F           -29.6311138000      -28.4108309875       -9.6723917651  MEMB      186             0.0000000000
     21595       186  OSM       H7F           -30.5811810641      -28.8274701775      -10.0700155631  MEMB      186             0.0000000000
     21596       186  OSM       H7G           -29.8745627018      -27.7598699122       -8.8056149784  MEMB      186             0.0000000000
     21597       186  OSM       C8F           -28.8669389403      -29.6821240442       -9.2360468704  MEMB      186             0.0000000000
     21598       186  OSM       H8F           -27.8528320024      -29.4263045583       -8.8612603130  MEMB      186             0.0000000000
     21599       186  OSM       H8G           -28.6077921302      -30.2619848985      -10.1475976806  MEMB      186             0.0000000000
     21600       186  OSM       C9F           -29.6526038623      -30.5575094847       -8.1891821010  MEMB      186             0.0000000000
     21601       186  OSM       H9F           -30.0413800984      -31.4299224226       -8.7348454383  MEMB      186             0.0000000000
     21602       186  OSM       C10F          -29.8564782550      -30.3010453949       -6.9130235559  MEMB      186             0.0000000000
     21603       186  OSM       H10F          -30.5037859202      -31.0202688821       -6.3898501672  MEMB      186             0.0000000000
     21604       186  OSM       C11F          -29.3612872751      -29.1268683488       -6.1501728044  MEMB      186             0.0000000000
     21605       186  OSM       H11F          -28.9580685206      -28.2695408737       -6.7304536333  MEMB      186             0.0000000000
     21606       186  OSM       H11G          -28.5504184238      -29.4741996354       -5.4747666628  MEMB      186             0.0000000000
     21607       186  OSM       C12F          -30.3319664155      -28.3835356690       -5.2579416465  MEMB      186             0.0000000000
     21608       186  OSM       H12F          -31.2724816671      -28.2061019816       -5.8220946215  MEMB      186             0.0000000000
     21609       186  OSM       H12G          -29.8402614917      -27.3962567547       -5.1244214159  MEMB      186             0.0000000000
     21610       186  OSM       C13F          -30.7230679964      -29.0299944100       -3.9502568895  MEMB      186             0.0000000000
     21611       186  OSM       H13F          -30.3664014984      -30.0791053263       -4.0307330478  MEMB      186             0.0000000000
     21612       186  OSM       H13G          -31.8295790683      -29.1260839377       -3.9234068149  MEMB      186             0.0000000000
     21613       186  OSM       C14F          -30.2378459127      -28.2712196891       -2.7136167672  MEMB      186             0.0000000000
     21614       186  OSM       H14F          -30.7841858084      -27.3140969432       -2.5730820519  MEMB      186             0.0000000000
     21615       186  OSM       H14G          -29.1388048229      -28.2047136303       -2.8619615171  MEMB      186             0.0000000000
     21616       186  OSM       C15F          -30.5102780299      -28.9468969219       -1.3502509324  MEMB      186             0.0000000000
     21617       186  OSM       H15F          -30.3568315562      -30.0393145173       -1.4821574913  MEMB      186             0.0000000000
     21618       186  OSM       H15G          -31.5713052705      -28.7783694538       -1.0671611968  MEMB      186             0.0000000000
     21619       186  OSM       C16F          -29.6713590976      -28.4354051828       -0.1588601764  MEMB      186             0.0000000000
     21620       186  OSM       H16F          -29.9340308380      -27.3934464849        0.1233575980  MEMB      186             0.0000000000
     21621       186  OSM       H16G          -28.5958782830      -28.5343579939       -0.4193778495  MEMB      186             0.0000000000
     21622       186  OSM       C17F          -29.7156303099      -29.1434531773        1.2462926571  MEMB      186             0.0000000000
     21623       186  OSM       H17F          -28.8340939918      -28.8241828729        1.8423470806  MEMB      186             0.0000000000
     21624       186  OSM       H17G          -29.5319541605      -30.2025797252        0.9655171480  MEMB      186             0.0000000000
     21625       186  OSM       C18F          -31.0494662874      -29.0334359162        2.0219753257  MEMB      186             0.0000000000
     21626       186  OSM       H18F          -31.9259142710      -29.2055627861        1.3612699359  MEMB      186             0.0000000000
     21627       186  OSM       H18G          -31.1720345705      -27.9779168625        2.3462855579  MEMB      186             0.0000000000
     21628       186  OSM       H18H          -31.1145393680      -29.6834820376        2.9206001446  MEMB      186             0.0000000000
     21629       187  CHL1      C3            -22.3534784251       35.7199398036      -17.3153550000  MEMB      187             0.0000000000
     21630       187  CHL1      H3            -22.1870979634       34.6252415595      -17.2244550000  MEMB      187             0.0000000000
     21631       187  CHL1      O3            -22.3333583749       35.9675951964      -18.6846450000  MEMB      187             0.0000000000
     21632       187  CHL1      H3'           -23.0161067461       35.4051714473      -19.0576650000  MEMB      187             0.0000000000
     21633       187  CHL1      C4            -23.6923274414       36.0679732085      -16.7988950000  MEMB      187             0.0000000000
     21634       187  CHL1      H4A           -23.9571709737       37.0393559538      -17.2685750000  MEMB      187             0.0000000000
     21635       187  CHL1      H4B           -24.4867565851       35.3934333381      -17.1838650000  MEMB      187             0.0000000000
     21636       187  CHL1      C5            -23.7676202160       35.9405380760      -15.2828550000  MEMB      187             0.0000000000
     21637       187  CHL1      C6            -24.4857080752       34.9796178361      -14.6606950000  MEMB      187             0.0000000000
     21638       187  CHL1      H6            -24.9569064327       34.2397424491      -15.3244350000  MEMB      187             0.0000000000
     21639       187  CHL1      C7            -24.5277868863       34.7527275925      -13.1973150000  MEMB      187             0.0000000000
     21640       187  CHL1      H7A           -25.5759169800       34.6795289647      -12.8362250000  MEMB      187             0.0000000000
     21641       187  CHL1      H7B           -24.0666841957       33.7784418693      -12.9281250000  MEMB      187             0.0000000000
     21642       187  CHL1      C8            -23.8956364393       35.9113957792      -12.3227050000  MEMB      187             0.0000000000
     21643       187  CHL1      H8            -24.6350788314       36.7405771772      -12.3209250000  MEMB      187             0.0000000000
     21644       187  CHL1      C14           -23.5452576572       35.4503210802      -10.9462750000  MEMB      187             0.0000000000
     21645       187  CHL1      H14           -22.7455041496       34.7234569806      -11.2039250000  MEMB      187             0.0000000000
     21646       187  CHL1      C15           -24.5949223433       34.6162571088      -10.1287150000  MEMB      187             0.0000000000
     21647       187  CHL1      H15A          -25.6509101422       34.9565053899      -10.1875250000  MEMB      187             0.0000000000
     21648       187  CHL1      H15B          -24.4866944814       33.5301767785      -10.3361750000  MEMB      187             0.0000000000
     21649       187  CHL1      C16           -24.1126100948       34.8700420398       -8.6724950000  MEMB      187             0.0000000000
     21650       187  CHL1      H16A          -24.9134286195       35.3592413329       -8.0777650000  MEMB      187             0.0000000000
     21651       187  CHL1      H16B          -23.8509641548       33.9064861650       -8.1852450000  MEMB      187             0.0000000000
     21652       187  CHL1      C17           -22.8623079033       35.8700132812       -8.6428150000  MEMB      187             0.0000000000
     21653       187  CHL1      H17           -21.9591583265       35.2363421584       -8.7736050000  MEMB      187             0.0000000000
     21654       187  CHL1      C13           -22.9936466043       36.6129976320       -9.9573950000  MEMB      187             0.0000000000
     21655       187  CHL1      C18           -24.0275177655       37.7575739259       -9.8196750000  MEMB      187             0.0000000000
     21656       187  CHL1      H18A          -23.6104532135       38.5503896747       -9.1625550000  MEMB      187             0.0000000000
     21657       187  CHL1      H18B          -24.2721417093       38.2213151509      -10.7991750000  MEMB      187             0.0000000000
     21658       187  CHL1      H18C          -24.9629881395       37.3911567229       -9.3453750000  MEMB      187             0.0000000000
     21659       187  CHL1      C12           -21.6900968279       37.1699954932      -10.6640650000  MEMB      187             0.0000000000
     21660       187  CHL1      H12A          -21.3674485898       38.0349230542      -10.0459150000  MEMB      187             0.0000000000
     21661       187  CHL1      H12B          -20.9933794269       36.3076574845      -10.5913450000  MEMB      187             0.0000000000
     21662       187  CHL1      C11           -21.8614612958       37.5213019522      -12.1506750000  MEMB      187             0.0000000000
     21663       187  CHL1      H11A          -22.5130904251       38.4209867273      -12.1668150000  MEMB      187             0.0000000000
     21664       187  CHL1      H11B          -20.8512159403       37.8358756769      -12.4894650000  MEMB      187             0.0000000000
     21665       187  CHL1      C9            -22.6175060824       36.4756281486      -13.0032650000  MEMB      187             0.0000000000
     21666       187  CHL1      H9            -21.8906053746       35.6356792552      -12.9832350000  MEMB      187             0.0000000000
     21667       187  CHL1      C10           -22.7105239335       36.8182659498      -14.5429750000  MEMB      187             0.0000000000
     21668       187  CHL1      C19           -23.1750496868       38.2701646200      -14.7035350000  MEMB      187             0.0000000000
     21669       187  CHL1      H19A          -22.2620868599       38.8875257490      -14.5631950000  MEMB      187             0.0000000000
     21670       187  CHL1      H19B          -23.6414661092       38.5384110436      -15.6755550000  MEMB      187             0.0000000000
     21671       187  CHL1      H19C          -23.8281501167       38.5116545594      -13.8378150000  MEMB      187             0.0000000000
     21672       187  CHL1      C1            -21.3422671434       36.3952539923      -15.1556950000  MEMB      187             0.0000000000
     21673       187  CHL1      H1A           -20.6044590578       37.0504455222      -14.6451350000  MEMB      187             0.0000000000
     21674       187  CHL1      H1B           -21.0882321852       35.3624131960      -14.8346950000  MEMB      187             0.0000000000
     21675       187  CHL1      C2            -21.2114392156       36.5702716895      -16.6733350000  MEMB      187             0.0000000000
     21676       187  CHL1      H2A           -20.1820527821       36.3187190332      -17.0071250000  MEMB      187             0.0000000000
     21677       187  CHL1      H2B           -21.4313855497       37.6479326621      -16.8301350000  MEMB      187             0.0000000000
     21678       187  CHL1      C20           -22.7279772247       36.6588667505       -7.2541550000  MEMB      187             0.0000000000
     21679       187  CHL1      H20           -23.6496802302       37.2597763121       -7.1002550000  MEMB      187             0.0000000000
     21680       187  CHL1      C21           -21.6364343600       37.6355376199       -7.2303550000  MEMB      187             0.0000000000
     21681       187  CHL1      H21A          -21.6782031777       38.4441799702       -7.9910550000  MEMB      187             0.0000000000
     21682       187  CHL1      H21B          -20.6338012394       37.1734487778       -7.3549250000  MEMB      187             0.0000000000
     21683       187  CHL1      H21C          -21.5086064884       38.1689917447       -6.2642250000  MEMB      187             0.0000000000
     21684       187  CHL1      C22           -22.6426365248       35.7718079658       -5.9320250000  MEMB      187             0.0000000000
     21685       187  CHL1      H22A          -22.5566393074       34.6827989251       -6.1344950000  MEMB      187             0.0000000000
     21686       187  CHL1      H22B          -21.8524537051       36.0484698508       -5.2016950000  MEMB      187             0.0000000000
     21687       187  CHL1      C23           -23.8768849160       35.9134468704       -5.0701750000  MEMB      187             0.0000000000
     21688       187  CHL1      H23A          -23.9140508224       36.9228550326       -4.6075250000  MEMB      187             0.0000000000
     21689       187  CHL1      H23B          -24.7113395070       35.8376222936       -5.7997350000  MEMB      187             0.0000000000
     21690       187  CHL1      C24           -24.1241826137       34.8107455828       -4.0102450000  MEMB      187             0.0000000000
     21691       187  CHL1      H24A          -24.6366312890       33.9806266703       -4.5418550000  MEMB      187             0.0000000000
     21692       187  CHL1      H24B          -23.1315080188       34.3338128509       -3.8637250000  MEMB      187             0.0000000000
     21693       187  CHL1      C25           -24.8359454827       35.2722160768       -2.7531850000  MEMB      187             0.0000000000
     21694       187  CHL1      H25           -25.0912020665       34.4411154494       -2.0614850000  MEMB      187             0.0000000000
     21695       187  CHL1      C26           -24.0676463422       36.3596983557       -1.9152250000  MEMB      187             0.0000000000
     21696       187  CHL1      H26A          -24.6121752057       36.5536982808       -0.9664450000  MEMB      187             0.0000000000
     21697       187  CHL1      H26B          -23.0987048645       35.9804466007       -1.5258050000  MEMB      187             0.0000000000
     21698       187  CHL1      H26C          -23.8297248234       37.3176473978       -2.4251750000  MEMB      187             0.0000000000
     21699       187  CHL1      C27           -26.2324334425       35.9176398530       -3.1032550000  MEMB      187             0.0000000000
     21700       187  CHL1      H27A          -26.8832817241       35.0788616161       -3.4306250000  MEMB      187             0.0000000000
     21701       187  CHL1      H27B          -26.7505195534       36.2576686826       -2.1811450000  MEMB      187             0.0000000000
     21702       187  CHL1      H27C          -26.1129705684       36.7657673216       -3.8108850000  MEMB      187             0.0000000000
     21703       188  OSM       N             -37.5501122703       27.0904978960      -21.3460043238  MEMB      188             0.0000000000
     21704       188  OSM       C15           -36.9885517701       26.1126579237      -20.4167729363  MEMB      188             0.0000000000
     21705       188  OSM       H15A          -37.6407480822       25.2602489792      -20.2966116386  MEMB      188             0.0000000000
     21706       188  OSM       H15B          -36.9606574191       26.5044736201      -19.4107399245  MEMB      188             0.0000000000
     21707       188  OSM       H15C          -35.9407202319       25.8807649183      -20.5379122752  MEMB      188             0.0000000000
     21708       188  OSM       C14           -37.1201040622       26.8675109262      -22.7601422446  MEMB      188             0.0000000000
     21709       188  OSM       H14A          -36.0488849484       26.7726167957      -22.8595634246  MEMB      188             0.0000000000
     21710       188  OSM       H14B          -37.4481143720       27.6973438621      -23.3685717637  MEMB      188             0.0000000000
     21711       188  OSM       H14C          -37.5796711443       25.9480086692      -23.0913730315  MEMB      188             0.0000000000
     21712       188  OSM       C13           -39.0127708063       27.0549290837      -21.3284378674  MEMB      188             0.0000000000
     21713       188  OSM       H13A          -39.3639505431       27.2730198918      -20.3306858231  MEMB      188             0.0000000000
     21714       188  OSM       H13B          -39.3002761746       26.0277481741      -21.4976710033  MEMB      188             0.0000000000
     21715       188  OSM       H13C          -39.5066222009       27.7449378264      -21.9965686810  MEMB      188             0.0000000000
     21716       188  OSM       C12           -37.0945212654       28.4888240896      -21.0048317430  MEMB      188             0.0000000000
     21717       188  OSM       H12A          -37.2585424466       28.5765989096      -19.9409743239  MEMB      188             0.0000000000
     21718       188  OSM       H12B          -37.7968232460       29.2470639765      -21.3182711006  MEMB      188             0.0000000000
     21719       188  OSM       C11           -35.6090079376       28.8273312850      -21.3604778202  MEMB      188             0.0000000000
     21720       188  OSM       H11A          -35.3502154418       29.7332837344      -20.7717524253  MEMB      188             0.0000000000
     21721       188  OSM       H11B          -35.6011437149       29.2455184780      -22.3897389410  MEMB      188             0.0000000000
     21722       188  OSM       P             -33.2409236423       28.1596920186      -20.5759029018  MEMB      188             0.0000000000
     21723       188  OSM       O13           -32.2594338309       27.2235196053      -21.2373083337  MEMB      188             0.0000000000
     21724       188  OSM       O14           -33.0553560064       29.5820363981      -20.6564509348  MEMB      188             0.0000000000
     21725       188  OSM       O11           -33.4325918196       27.8355114541      -19.0988815847  MEMB      188             0.0000000000
     21726       188  OSM       O12           -34.6610646880       27.8139113237      -21.2147893118  MEMB      188             0.0000000000
     21727       188  OSM       C1S           -34.6661200711       27.5247065275      -18.5152676243  MEMB      188             0.0000000000
     21728       188  OSM       H1S           -35.1179288906       26.5636144960      -18.8415985493  MEMB      188             0.0000000000
     21729       188  OSM       H1T           -35.4170231801       28.3343616959      -18.6374317190  MEMB      188             0.0000000000
     21730       188  OSM       NF            -35.6062419900       26.6444723185      -16.3668099930  MEMB      188             0.0000000000
     21731       188  OSM       HNF           -36.1725151202       27.0635415545      -15.6613143059  MEMB      188             0.0000000000
     21732       188  OSM       C2S           -34.4475434105       27.3622895286      -17.0013581948  MEMB      188             0.0000000000
     21733       188  OSM       H2S           -33.5349919128       26.7332601727      -16.9245938417  MEMB      188             0.0000000000
     21734       188  OSM       C3S           -34.1921765165       28.7292868285      -16.3301857880  MEMB      188             0.0000000000
     21735       188  OSM       H3S           -35.0538037897       29.4144874721      -16.4799168391  MEMB      188             0.0000000000
     21736       188  OSM       O3            -33.1144084401       29.4576151210      -16.9013948012  MEMB      188             0.0000000000
     21737       188  OSM       HO3           -32.8889948397       28.8939908444      -17.6451126498  MEMB      188             0.0000000000
     21738       188  OSM       C4S           -33.9795449519       28.4858956885      -14.8418383881  MEMB      188             0.0000000000
     21739       188  OSM       H4S           -33.0696984903       27.9493763044      -14.5347126747  MEMB      188             0.0000000000
     21740       188  OSM       C5S           -34.6403148073       29.1508676822      -13.8403013688  MEMB      188             0.0000000000
     21741       188  OSM       H5S           -35.3597835539       29.9299579154      -14.1325053709  MEMB      188             0.0000000000
     21742       188  OSM       C6S           -34.3166225514       28.8600832520      -12.3980566341  MEMB      188             0.0000000000
     21743       188  OSM       H6S           -35.2798140406       29.1605633329      -11.9329809802  MEMB      188             0.0000000000
     21744       188  OSM       H6T           -33.4135833238       29.3291112608      -11.9521260590  MEMB      188             0.0000000000
     21745       188  OSM       C7S           -34.1399621666       27.3741013717      -12.0892145871  MEMB      188             0.0000000000
     21746       188  OSM       H7S           -33.5723712942       26.8180705683      -12.8657399689  MEMB      188             0.0000000000
     21747       188  OSM       H7T           -35.1407348408       26.8943240070      -12.1400927635  MEMB      188             0.0000000000
     21748       188  OSM       C8S           -33.6602481344       27.1061866651      -10.6303468492  MEMB      188             0.0000000000
     21749       188  OSM       H8S           -32.7138256763       27.6253555078      -10.3675357574  MEMB      188             0.0000000000
     21750       188  OSM       H8T           -33.3638008179       26.0403737060      -10.5279614218  MEMB      188             0.0000000000
     21751       188  OSM       C9S           -34.5817154717       27.4834789075       -9.4752093970  MEMB      188             0.0000000000
     21752       188  OSM       H9S           -35.4469667978       26.8744202325       -9.8138960136  MEMB      188             0.0000000000
     21753       188  OSM       H9T           -34.9384522548       28.5356457383       -9.4729927946  MEMB      188             0.0000000000
     21754       188  OSM       C10S          -33.9601801265       27.1462182509       -8.0294276045  MEMB      188             0.0000000000
     21755       188  OSM       H10S          -34.6389788047       27.5908073391       -7.2705508690  MEMB      188             0.0000000000
     21756       188  OSM       H10T          -33.0249821973       27.7398307948       -7.9436942768  MEMB      188             0.0000000000
     21757       188  OSM       C11S          -33.7782449374       25.6112665238       -7.8148663553  MEMB      188             0.0000000000
     21758       188  OSM       H11S          -32.9960484686       25.2428309687       -8.5125375045  MEMB      188             0.0000000000
     21759       188  OSM       H11T          -34.6918549462       25.1041339294       -8.1922974111  MEMB      188             0.0000000000
     21760       188  OSM       C12S          -33.3895212470       25.0055674517       -6.4595197056  MEMB      188             0.0000000000
     21761       188  OSM       H12S          -32.6724189571       25.7613237250       -6.0736212240  MEMB      188             0.0000000000
     21762       188  OSM       H12T          -32.9237980430       24.0026520574       -6.5671461893  MEMB      188             0.0000000000
     21763       188  OSM       C13S          -34.6662054399       24.8076738247       -5.5360741371  MEMB      188             0.0000000000
     21764       188  OSM       H13S          -35.3954219920       24.0904660171       -5.9698673619  MEMB      188             0.0000000000
     21765       188  OSM       H13T          -35.3375549581       25.6917970950       -5.4920631472  MEMB      188             0.0000000000
     21766       188  OSM       C14S          -34.2579490828       24.2969498051       -4.1509297640  MEMB      188             0.0000000000
     21767       188  OSM       H14S          -33.5723866293       23.4226932003       -4.1516320785  MEMB      188             0.0000000000
     21768       188  OSM       H14T          -35.1540925785       23.8995694062       -3.6281151963  MEMB      188             0.0000000000
     21769       188  OSM       C15S          -33.8161653878       25.4092828570       -3.2568358804  MEMB      188             0.0000000000
     21770       188  OSM       H15S          -34.6904688984       26.0905998358       -3.1811940290  MEMB      188             0.0000000000
     21771       188  OSM       H15T          -32.8807763494       25.7928740442       -3.7175153713  MEMB      188             0.0000000000
     21772       188  OSM       C16S          -33.4452350315       24.9615708774       -1.8626652591  MEMB      188             0.0000000000
     21773       188  OSM       H16S          -32.6543614013       24.1976486140       -2.0216067048  MEMB      188             0.0000000000
     21774       188  OSM       H16T          -34.3511175222       24.5527693192       -1.3660967648  MEMB      188             0.0000000000
     21775       188  OSM       C17S          -32.9286797275       26.1749756093       -1.0532548571  MEMB      188             0.0000000000
     21776       188  OSM       H17S          -33.7599634884       26.9088290051       -0.9843519965  MEMB      188             0.0000000000
     21777       188  OSM       H17T          -32.1084934262       26.7537189087       -1.5293550290  MEMB      188             0.0000000000
     21778       188  OSM       C18S          -32.3852209468       25.7309932702        0.3240076760  MEMB      188             0.0000000000
     21779       188  OSM       H18S          -33.1715489996       25.1448734200        0.8459980511  MEMB      188             0.0000000000
     21780       188  OSM       H18T          -32.3169767622       26.6020301968        1.0102725063  MEMB      188             0.0000000000
     21781       188  OSM       H18U          -31.3872513811       25.2637358080        0.1824178097  MEMB      188             0.0000000000
     21782       188  OSM       C1F           -35.9266138518       25.3335109078      -16.5928756976  MEMB      188             0.0000000000
     21783       188  OSM       OF            -35.1165818630       24.4744426405      -17.0531744003  MEMB      188             0.0000000000
     21784       188  OSM       C2F           -37.3181328266       24.9537063080      -16.2330201542  MEMB      188             0.0000000000
     21785       188  OSM       H2F           -37.7076593219       24.2198547928      -16.9706187207  MEMB      188             0.0000000000
     21786       188  OSM       H2G           -37.9993839546       25.8168055094      -16.3920098265  MEMB      188             0.0000000000
     21787       188  OSM       C3F           -37.4789870292       24.2289654665      -14.9143602404  MEMB      188             0.0000000000
     21788       188  OSM       H3F           -36.8407809836       23.3207602693      -14.8676963984  MEMB      188             0.0000000000
     21789       188  OSM       H3G           -38.5052093026       23.8039862427      -14.9384795183  MEMB      188             0.0000000000
     21790       188  OSM       C4F           -37.5176565125       25.1528760799      -13.6604545702  MEMB      188             0.0000000000
     21791       188  OSM       H4F           -37.9311233628       26.1528791672      -13.9121690689  MEMB      188             0.0000000000
     21792       188  OSM       H4G           -36.4773838533       25.2888357102      -13.2948476614  MEMB      188             0.0000000000
     21793       188  OSM       C5F           -38.4401354117       24.6734307656      -12.4925017326  MEMB      188             0.0000000000
     21794       188  OSM       H5F           -38.1152944421       23.6832878927      -12.1072532819  MEMB      188             0.0000000000
     21795       188  OSM       H5G           -39.4668930735       24.6089858489      -12.9119497569  MEMB      188             0.0000000000
     21796       188  OSM       C6F           -38.4852411321       25.6301035246      -11.2394214296  MEMB      188             0.0000000000
     21797       188  OSM       H6F           -37.5942028585       25.4025154431      -10.6160637505  MEMB      188             0.0000000000
     21798       188  OSM       H6G           -39.2940567918       25.2490996985      -10.5798960912  MEMB      188             0.0000000000
     21799       188  OSM       C7F           -38.5978926734       27.0783552976      -11.4828539120  MEMB      188             0.0000000000
     21800       188  OSM       H7F           -39.4204962501       27.1716223319      -12.2237625045  MEMB      188             0.0000000000
     21801       188  OSM       H7G           -37.7066086972       27.5796181009      -11.9172150647  MEMB      188             0.0000000000
     21802       188  OSM       C8F           -39.0013427314       27.7076623950      -10.1423793584  MEMB      188             0.0000000000
     21803       188  OSM       H8F           -38.0075459743       27.8861174361       -9.6788686252  MEMB      188             0.0000000000
     21804       188  OSM       H8G           -39.5877958238       27.0058409352       -9.5116342663  MEMB      188             0.0000000000
     21805       188  OSM       C9F           -39.7873889005       28.9452979561      -10.2734086527  MEMB      188             0.0000000000
     21806       188  OSM       H9F           -40.6194426505       28.9329142104      -10.9928064608  MEMB      188             0.0000000000
     21807       188  OSM       C10F          -39.5281769161       30.1374678149       -9.5758198863  MEMB      188             0.0000000000
     21808       188  OSM       H10F          -40.2310295907       30.9722267434       -9.7142941192  MEMB      188             0.0000000000
     21809       188  OSM       C11F          -38.4009869157       30.3336095103       -8.6188446110  MEMB      188             0.0000000000
     21810       188  OSM       H11F          -37.9681119345       31.3558228231       -8.6637931460  MEMB      188             0.0000000000
     21811       188  OSM       H11G          -37.5677829663       29.6489622058       -8.8859593006  MEMB      188             0.0000000000
     21812       188  OSM       C12F          -38.5867183117       30.0509006857       -7.0576478155  MEMB      188             0.0000000000
     21813       188  OSM       H12F          -39.1705324256       29.1161160961       -6.9174344332  MEMB      188             0.0000000000
     21814       188  OSM       H12G          -39.2523741514       30.8122753501       -6.5977218039  MEMB      188             0.0000000000
     21815       188  OSM       C13F          -37.2285047056       30.1255389230       -6.3434420345  MEMB      188             0.0000000000
     21816       188  OSM       H13F          -36.5759519866       30.9567628743       -6.6863164806  MEMB      188             0.0000000000
     21817       188  OSM       H13G          -36.6465574198       29.2824299461       -6.7733560681  MEMB      188             0.0000000000
     21818       188  OSM       C14F          -37.4111936172       30.0875380882       -4.8963251736  MEMB      188             0.0000000000
     21819       188  OSM       H14F          -38.1693266215       29.2898254707       -4.7439777378  MEMB      188             0.0000000000
     21820       188  OSM       H14G          -37.7850260275       30.9901104017       -4.3672387866  MEMB      188             0.0000000000
     21821       188  OSM       C15F          -36.1105254169       29.7386179588       -4.1436044523  MEMB      188             0.0000000000
     21822       188  OSM       H15F          -35.2699868742       30.2056759628       -4.7000863806  MEMB      188             0.0000000000
     21823       188  OSM       H15G          -35.9173636752       28.6514779207       -4.0205738857  MEMB      188             0.0000000000
     21824       188  OSM       C16F          -36.0230876268       30.4792531602       -2.8268375029  MEMB      188             0.0000000000
     21825       188  OSM       H16F          -35.9582885773       31.5710793176       -3.0218688044  MEMB      188             0.0000000000
     21826       188  OSM       H16G          -35.0702027302       30.3153914490       -2.2795883590  MEMB      188             0.0000000000
     21827       188  OSM       C17F          -37.1808584289       30.2443385801       -1.8734424396  MEMB      188             0.0000000000
     21828       188  OSM       H17F          -38.1365356754       30.3398390432       -2.4319059307  MEMB      188             0.0000000000
     21829       188  OSM       H17G          -37.1584830494       31.0276268150       -1.0858651483  MEMB      188             0.0000000000
     21830       188  OSM       C18F          -37.4331180487       28.8700915067       -1.2191419594  MEMB      188             0.0000000000
     21831       188  OSM       H18F          -36.8547916575       28.8048723977       -0.2727779001  MEMB      188             0.0000000000
     21832       188  OSM       H18G          -37.0714112453       28.0006196898       -1.8086416431  MEMB      188             0.0000000000
     21833       188  OSM       H18H          -38.4770106943       28.6888729481       -0.8848253654  MEMB      188             0.0000000000
     21834       189  OSM       N              26.8091216565      -34.9175658320      -20.1733241246  MEMB      189             0.0000000000
     21835       189  OSM       C15            26.5908068543      -34.9614354484      -21.6332958375  MEMB      189             0.0000000000
     21836       189  OSM       H15A           26.3941619302      -35.9194059248      -22.0915786965  MEMB      189             0.0000000000
     21837       189  OSM       H15B           27.2843411607      -34.3898139533      -22.2321773471  MEMB      189             0.0000000000
     21838       189  OSM       H15C           25.6386443335      -34.4861809960      -21.8174686547  MEMB      189             0.0000000000
     21839       189  OSM       C14            26.6350743260      -33.5400724088      -19.5909492448  MEMB      189             0.0000000000
     21840       189  OSM       H14A           26.8682342177      -33.5343716956      -18.5364333225  MEMB      189             0.0000000000
     21841       189  OSM       H14B           25.6363093495      -33.2292350131      -19.8597405478  MEMB      189             0.0000000000
     21842       189  OSM       H14C           27.3622209672      -32.8449798144      -19.9840193006  MEMB      189             0.0000000000
     21843       189  OSM       C13            25.8015940724      -35.8030986171      -19.5032176243  MEMB      189             0.0000000000
     21844       189  OSM       H13A           24.8848977835      -35.2453227700      -19.6255040588  MEMB      189             0.0000000000
     21845       189  OSM       H13B           26.1177975265      -35.9035705500      -18.4754428947  MEMB      189             0.0000000000
     21846       189  OSM       H13C           25.7500902906      -36.8264596714      -19.8445086747  MEMB      189             0.0000000000
     21847       189  OSM       C12            28.2176605947      -35.5193236210      -19.9736511005  MEMB      189             0.0000000000
     21848       189  OSM       H12A           28.0534179555      -36.5721863219      -20.1494480282  MEMB      189             0.0000000000
     21849       189  OSM       H12B           28.3305266630      -35.5569306653      -18.9002233165  MEMB      189             0.0000000000
     21850       189  OSM       C11            29.3516769868      -35.0607531405      -20.9458092099  MEMB      189             0.0000000000
     21851       189  OSM       H11A           29.1716001324      -35.5164009864      -21.9429443088  MEMB      189             0.0000000000
     21852       189  OSM       H11B           30.3260561857      -35.4981612792      -20.6398999753  MEMB      189             0.0000000000
     21853       189  OSM       P              30.5327966873      -32.9710176457      -21.8999774798  MEMB      189             0.0000000000
     21854       189  OSM       O13            30.8091054557      -33.7449649332      -23.1806935949  MEMB      189             0.0000000000
     21855       189  OSM       O14            30.0613300431      -31.6225215571      -22.1931302314  MEMB      189             0.0000000000
     21856       189  OSM       O11            31.7359337360      -32.8910738674      -20.8837687491  MEMB      189             0.0000000000
     21857       189  OSM       O12            29.4521108067      -33.6493614464      -21.0221827828  MEMB      189             0.0000000000
     21858       189  OSM       C1S            31.5458352453      -32.3577288184      -19.5161273961  MEMB      189             0.0000000000
     21859       189  OSM       H1S            30.8790701672      -31.4699246409      -19.4767693216  MEMB      189             0.0000000000
     21860       189  OSM       H1T            32.5732589693      -32.0336055058      -19.2447143241  MEMB      189             0.0000000000
     21861       189  OSM       NF             30.7402972149      -32.5803042486      -17.2043583783  MEMB      189             0.0000000000
     21862       189  OSM       HNF            31.3946620031      -32.5828559815      -16.4521556318  MEMB      189             0.0000000000
     21863       189  OSM       C2S            30.9930441282      -33.3375448850      -18.3754699041  MEMB      189             0.0000000000
     21864       189  OSM       H2S            30.0304951173      -33.7942982568      -18.6904250552  MEMB      189             0.0000000000
     21865       189  OSM       C3S            31.9965672423      -34.4184123415      -18.1339014775  MEMB      189             0.0000000000
     21866       189  OSM       H3S            32.8808259954      -33.9463215521      -17.6548002919  MEMB      189             0.0000000000
     21867       189  OSM       O3             32.3778116324      -35.1382919178      -19.3674179850  MEMB      189             0.0000000000
     21868       189  OSM       HO3            32.0045038288      -34.6780658627      -20.1226882882  MEMB      189             0.0000000000
     21869       189  OSM       C4S            31.4998615341      -35.4641412182      -17.0692307524  MEMB      189             0.0000000000
     21870       189  OSM       H4S            30.4284949084      -35.6928993678      -17.1684435225  MEMB      189             0.0000000000
     21871       189  OSM       C5S            32.1659079508      -36.0989557895      -16.0847456673  MEMB      189             0.0000000000
     21872       189  OSM       H5S            33.2496697616      -35.9255598726      -16.0113012573  MEMB      189             0.0000000000
     21873       189  OSM       C6S            31.6229572293      -37.0984440313      -15.1021803358  MEMB      189             0.0000000000
     21874       189  OSM       H6S            32.2079845448      -38.0410780995      -15.1613834159  MEMB      189             0.0000000000
     21875       189  OSM       H6T            30.5286467819      -37.2902150010      -15.1076342253  MEMB      189             0.0000000000
     21876       189  OSM       C7S            31.8122484164      -36.6033665727      -13.5259706241  MEMB      189             0.0000000000
     21877       189  OSM       H7S            32.8981304670      -36.4878353727      -13.3214377537  MEMB      189             0.0000000000
     21878       189  OSM       H7T            31.5452757527      -37.5339616304      -12.9809574563  MEMB      189             0.0000000000
     21879       189  OSM       C8S            30.8817262674      -35.4692535411      -13.2128569025  MEMB      189             0.0000000000
     21880       189  OSM       H8S            29.8539802544      -35.7527007805      -13.5254536105  MEMB      189             0.0000000000
     21881       189  OSM       H8T            31.0281271078      -34.5415052983      -13.8062968595  MEMB      189             0.0000000000
     21882       189  OSM       C9S            30.8104551946      -34.9690142041      -11.6994574802  MEMB      189             0.0000000000
     21883       189  OSM       H9S            31.7905977282      -34.4792982934      -11.5155558057  MEMB      189             0.0000000000
     21884       189  OSM       H9T            30.6444531284      -35.8085596978      -10.9909889336  MEMB      189             0.0000000000
     21885       189  OSM       C10S           29.8758182575      -33.7923182054      -11.4087176586  MEMB      189             0.0000000000
     21886       189  OSM       H10S           28.8071757129      -34.0088516205      -11.6218779380  MEMB      189             0.0000000000
     21887       189  OSM       H10T           30.1592735427      -33.0059457236      -12.1405598393  MEMB      189             0.0000000000
     21888       189  OSM       C11S           29.9900482674      -33.3179472787       -9.9539531049  MEMB      189             0.0000000000
     21889       189  OSM       H11S           31.0787376244      -33.2596734363       -9.7402221726  MEMB      189             0.0000000000
     21890       189  OSM       H11T           29.7020487495      -34.2296552240       -9.3881205057  MEMB      189             0.0000000000
     21891       189  OSM       C12S           29.1986478715      -32.0811273971       -9.6444503656  MEMB      189             0.0000000000
     21892       189  OSM       H12S           28.1582500674      -32.4229245707       -9.4571855503  MEMB      189             0.0000000000
     21893       189  OSM       H12T           29.2159946423      -31.4148081113      -10.5332911696  MEMB      189             0.0000000000
     21894       189  OSM       C13S           29.7545488844      -31.3548058756       -8.3369995605  MEMB      189             0.0000000000
     21895       189  OSM       H13S           30.8134627958      -31.0879516609       -8.5414774003  MEMB      189             0.0000000000
     21896       189  OSM       H13T           29.8360678092      -32.1241262254       -7.5396156439  MEMB      189             0.0000000000
     21897       189  OSM       C14S           28.9477024145      -30.2059572904       -7.8174423923  MEMB      189             0.0000000000
     21898       189  OSM       H14S           27.8971654925      -30.4557228408       -7.5560793719  MEMB      189             0.0000000000
     21899       189  OSM       H14T           28.8697677154      -29.3371805215       -8.5055363349  MEMB      189             0.0000000000
     21900       189  OSM       C15S           29.4453685839      -29.6364824665       -6.5038145210  MEMB      189             0.0000000000
     21901       189  OSM       H15S           28.9278108015      -28.6785415090       -6.2828973687  MEMB      189             0.0000000000
     21902       189  OSM       H15T           30.4653176314      -29.2193599814       -6.6453541529  MEMB      189             0.0000000000
     21903       189  OSM       C16S           29.3756357146      -30.5268935122       -5.1933156934  MEMB      189             0.0000000000
     21904       189  OSM       H16S           29.9842519596      -31.4463017200       -5.3296827876  MEMB      189             0.0000000000
     21905       189  OSM       H16T           28.2761091489      -30.6604259776       -5.1065324718  MEMB      189             0.0000000000
     21906       189  OSM       C17S           29.9542496262      -29.8104242856       -3.9558599305  MEMB      189             0.0000000000
     21907       189  OSM       H17S           29.2126326629      -29.0632647644       -3.6007837005  MEMB      189             0.0000000000
     21908       189  OSM       H17T           30.8987478845      -29.3168594707       -4.2699265565  MEMB      189             0.0000000000
     21909       189  OSM       C18S           30.2290851852      -30.7516737337       -2.8239453022  MEMB      189             0.0000000000
     21910       189  OSM       H18S           31.0302056464      -31.4560693403       -3.1343544975  MEMB      189             0.0000000000
     21911       189  OSM       H18T           29.3067545280      -31.2863482966       -2.5112943319  MEMB      189             0.0000000000
     21912       189  OSM       H18U           30.5250990990      -30.0990212481       -1.9749793356  MEMB      189             0.0000000000
     21913       189  OSM       C1F            29.6378579743      -31.8206962466      -17.1107916066  MEMB      189             0.0000000000
     21914       189  OSM       OF             28.7735318874      -31.7628764390      -17.9454118958  MEMB      189             0.0000000000
     21915       189  OSM       C2F            29.3624022240      -31.1339418633      -15.7525417496  MEMB      189             0.0000000000
     21916       189  OSM       H2F            28.6847519351      -30.2566748822      -15.8267971902  MEMB      189             0.0000000000
     21917       189  OSM       H2G            30.3191357799      -30.7747389205      -15.3167034161  MEMB      189             0.0000000000
     21918       189  OSM       C3F            28.7978737193      -32.1828487694      -14.7839527706  MEMB      189             0.0000000000
     21919       189  OSM       H3F            28.6506151250      -31.7618160095      -13.7664228526  MEMB      189             0.0000000000
     21920       189  OSM       H3G            29.4244202276      -33.0969006933      -14.7047728673  MEMB      189             0.0000000000
     21921       189  OSM       C4F            27.3675143514      -32.7017374362      -15.1295419873  MEMB      189             0.0000000000
     21922       189  OSM       H4F            27.4291304715      -33.4235069283      -15.9719037498  MEMB      189             0.0000000000
     21923       189  OSM       H4G            26.7934133908      -31.8057914368      -15.4489315052  MEMB      189             0.0000000000
     21924       189  OSM       C5F            26.5556588916      -33.4721096505      -14.0822817418  MEMB      189             0.0000000000
     21925       189  OSM       H5F            25.5077399313      -33.4354385937      -14.4494907937  MEMB      189             0.0000000000
     21926       189  OSM       H5G            26.5982129997      -32.9308607092      -13.1129731786  MEMB      189             0.0000000000
     21927       189  OSM       C6F            26.9071232026      -34.9012174048      -13.8323775222  MEMB      189             0.0000000000
     21928       189  OSM       H6F            27.8762785975      -34.8779627204      -13.2896827344  MEMB      189             0.0000000000
     21929       189  OSM       H6G            27.1125902790      -35.3946016804      -14.8063777361  MEMB      189             0.0000000000
     21930       189  OSM       C7F            25.8933437737      -35.7088202623      -13.0036251085  MEMB      189             0.0000000000
     21931       189  OSM       H7F            24.9172743895      -35.9163467521      -13.4920330622  MEMB      189             0.0000000000
     21932       189  OSM       H7G            25.6877187832      -35.1701963911      -12.0539287090  MEMB      189             0.0000000000
     21933       189  OSM       C8F            26.4561847189      -37.1542759377      -12.6999083145  MEMB      189             0.0000000000
     21934       189  OSM       H8F            26.5429002492      -37.5138860925      -13.7475162248  MEMB      189             0.0000000000
     21935       189  OSM       H8G            25.6457829196      -37.7949964072      -12.2911946927  MEMB      189             0.0000000000
     21936       189  OSM       C9F            27.8441161273      -37.3457162229      -12.0636464343  MEMB      189             0.0000000000
     21937       189  OSM       H9F            28.5097033909      -37.6675020760      -12.8781687182  MEMB      189             0.0000000000
     21938       189  OSM       C10F           28.2141792172      -37.3263445141      -10.7548722611  MEMB      189             0.0000000000
     21939       189  OSM       H10F           29.2450542337      -37.4974830817      -10.4113489726  MEMB      189             0.0000000000
     21940       189  OSM       C11F           27.2336688487      -37.0305302127       -9.6626461594  MEMB      189             0.0000000000
     21941       189  OSM       H11F           27.4139082292      -37.8398979427       -8.9232155539  MEMB      189             0.0000000000
     21942       189  OSM       H11G           26.2047021437      -37.2074389246      -10.0424522032  MEMB      189             0.0000000000
     21943       189  OSM       C12F           27.2721376273      -35.6584996328       -9.0086559093  MEMB      189             0.0000000000
     21944       189  OSM       H12F           26.8105880018      -34.9537922129       -9.7330041573  MEMB      189             0.0000000000
     21945       189  OSM       H12G           28.2759036549      -35.3564280053       -8.6405144797  MEMB      189             0.0000000000
     21946       189  OSM       C13F           26.3947143645      -35.6213166828       -7.6875132418  MEMB      189             0.0000000000
     21947       189  OSM       H13F           26.6499185649      -36.4952921371       -7.0508356519  MEMB      189             0.0000000000
     21948       189  OSM       H13G           25.3379886849      -35.6649830753       -8.0277267981  MEMB      189             0.0000000000
     21949       189  OSM       C14F           26.5110265485      -34.2543863359       -6.8818917707  MEMB      189             0.0000000000
     21950       189  OSM       H14F           26.3082750886      -33.4342089682       -7.6033635290  MEMB      189             0.0000000000
     21951       189  OSM       H14G           27.6080968730      -34.1957698898       -6.7165979847  MEMB      189             0.0000000000
     21952       189  OSM       C15F           25.5998778537      -34.2647107281       -5.6253596305  MEMB      189             0.0000000000
     21953       189  OSM       H15F           24.5809857725      -34.6077406197       -5.9055557541  MEMB      189             0.0000000000
     21954       189  OSM       H15G           25.6948293806      -33.2650569276       -5.1499676405  MEMB      189             0.0000000000
     21955       189  OSM       C16F           26.0750944016      -35.3141609086       -4.5657428866  MEMB      189             0.0000000000
     21956       189  OSM       H16F           26.0066754309      -36.3457224962       -4.9725843002  MEMB      189             0.0000000000
     21957       189  OSM       H16G           25.2816943779      -35.1658665422       -3.8022982050  MEMB      189             0.0000000000
     21958       189  OSM       C17F           27.4761670779      -34.9433736813       -3.9907343155  MEMB      189             0.0000000000
     21959       189  OSM       H17F           27.5201972080      -33.9919505775       -3.4187425319  MEMB      189             0.0000000000
     21960       189  OSM       H17G           28.2429719639      -34.8328182833       -4.7870446051  MEMB      189             0.0000000000
     21961       189  OSM       C18F           27.8876332201      -36.0934350033       -3.0927768200  MEMB      189             0.0000000000
     21962       189  OSM       H18F           28.8626384948      -35.7983572137       -2.6493650601  MEMB      189             0.0000000000
     21963       189  OSM       H18G           28.0600831724      -37.0572507235       -3.6177927684  MEMB      189             0.0000000000
     21964       189  OSM       H18H           27.1214881097      -36.2415565457       -2.3019532931  MEMB      189             0.0000000000
     21965       190  CHL1      C3            -30.0306701222      -34.9470041838      -17.2857850000  MEMB      190             0.0000000000
     21966       190  CHL1      H3            -29.0050072418      -34.5583306468      -17.1089550000  MEMB      190             0.0000000000
     21967       190  CHL1      O3            -30.2620668778      -34.9905584162      -18.7142150000  MEMB      190             0.0000000000
     21968       190  CHL1      H3'           -30.2353777716      -34.1030490091      -19.0791850000  MEMB      190             0.0000000000
     21969       190  CHL1      C4            -30.2163947564      -36.2976819021      -16.5992450000  MEMB      190             0.0000000000
     21970       190  CHL1      H4A           -31.2527110281      -36.6294168560      -16.8235550000  MEMB      190             0.0000000000
     21971       190  CHL1      H4B           -29.5402066924      -37.0185946237      -17.1065550000  MEMB      190             0.0000000000
     21972       190  CHL1      C5            -29.9740053948      -36.2987451720      -15.1026950000  MEMB      190             0.0000000000
     21973       190  CHL1      C6            -28.9680947225      -36.9138735180      -14.4986850000  MEMB      190             0.0000000000
     21974       190  CHL1      H6            -28.3537282820      -37.5716681647      -15.1310250000  MEMB      190             0.0000000000
     21975       190  CHL1      C7            -28.7872633416      -36.9591679422      -12.9757850000  MEMB      190             0.0000000000
     21976       190  CHL1      H7A           -28.8311302325      -37.9917101970      -12.5680450000  MEMB      190             0.0000000000
     21977       190  CHL1      H7B           -27.8105446178      -36.5526039960      -12.6366150000  MEMB      190             0.0000000000
     21978       190  CHL1      C8            -29.9051364428      -36.2284223773      -12.1983550000  MEMB      190             0.0000000000
     21979       190  CHL1      H8            -30.7417340167      -36.9509363201      -12.0870350000  MEMB      190             0.0000000000
     21980       190  CHL1      C14           -29.4262924082      -35.7368214344      -10.7552750000  MEMB      190             0.0000000000
     21981       190  CHL1      H14           -28.5577040583      -35.0494199503      -10.8408850000  MEMB      190             0.0000000000
     21982       190  CHL1      C15           -28.8303890771      -36.7730055339       -9.8359750000  MEMB      190             0.0000000000
     21983       190  CHL1      H15A          -29.5877235374      -37.5828510936       -9.7660450000  MEMB      190             0.0000000000
     21984       190  CHL1      H15B          -27.8940561493      -37.2124528565      -10.2415450000  MEMB      190             0.0000000000
     21985       190  CHL1      C16           -28.7409686346      -36.0655727384       -8.4956050000  MEMB      190             0.0000000000
     21986       190  CHL1      H16A          -29.1683132300      -36.7540794963       -7.7355650000  MEMB      190             0.0000000000
     21987       190  CHL1      H16B          -27.7374731792      -35.6520091678       -8.2583650000  MEMB      190             0.0000000000
     21988       190  CHL1      C17           -29.5789047196      -34.7161915084       -8.7801150000  MEMB      190             0.0000000000
     21989       190  CHL1      H17           -28.8982517448      -33.9520499921       -9.2126850000  MEMB      190             0.0000000000
     21990       190  CHL1      C13           -30.4171936311      -34.9845860039       -9.9579550000  MEMB      190             0.0000000000
     21991       190  CHL1      C18           -31.6333761527      -35.8218984228       -9.6653450000  MEMB      190             0.0000000000
     21992       190  CHL1      H18A          -32.1434423829      -36.0974064223      -10.6131050000  MEMB      190             0.0000000000
     21993       190  CHL1      H18B          -31.4735659978      -36.7593523760       -9.0909250000  MEMB      190             0.0000000000
     21994       190  CHL1      H18C          -32.4590861330      -35.2559065228       -9.1835050000  MEMB      190             0.0000000000
     21995       190  CHL1      C12           -30.7283426191      -33.7528676757      -10.7622250000  MEMB      190             0.0000000000
     21996       190  CHL1      H12A          -31.4696320358      -33.1389344862      -10.2073350000  MEMB      190             0.0000000000
     21997       190  CHL1      H12B          -29.8590091018      -33.0614803133      -10.7860550000  MEMB      190             0.0000000000
     21998       190  CHL1      C11           -31.1343982581      -34.0057522315      -12.1714850000  MEMB      190             0.0000000000
     21999       190  CHL1      H11A          -32.1745803741      -34.3949899448      -12.1423550000  MEMB      190             0.0000000000
     22000       190  CHL1      H11B          -31.2253929259      -33.0629011645      -12.7520750000  MEMB      190             0.0000000000
     22001       190  CHL1      C9            -30.2981407222      -35.0154159856      -12.9844650000  MEMB      190             0.0000000000
     22002       190  CHL1      H9            -29.3335691555      -34.4712990508      -13.0732150000  MEMB      190             0.0000000000
     22003       190  CHL1      C10           -30.8913581789      -35.2936584920      -14.3764450000  MEMB      190             0.0000000000
     22004       190  CHL1      C19           -32.2648089056      -36.0487506253      -14.2359750000  MEMB      190             0.0000000000
     22005       190  CHL1      H19A          -33.0893606033      -35.3648891479      -13.9413850000  MEMB      190             0.0000000000
     22006       190  CHL1      H19B          -32.5634068955      -36.5608719358      -15.1756050000  MEMB      190             0.0000000000
     22007       190  CHL1      H19C          -32.1105811346      -36.7772277966      -13.4114450000  MEMB      190             0.0000000000
     22008       190  CHL1      C1            -30.9532411012      -33.9204782818      -15.2291050000  MEMB      190             0.0000000000
     22009       190  CHL1      H1A           -31.8746828135      -33.4469075259      -14.8278650000  MEMB      190             0.0000000000
     22010       190  CHL1      H1B           -30.0909020042      -33.2886217104      -14.9266950000  MEMB      190             0.0000000000
     22011       190  CHL1      C2            -31.0686125317      -33.9989631587      -16.7214950000  MEMB      190             0.0000000000
     22012       190  CHL1      H2A           -31.0693965679      -33.0188991205      -17.2447550000  MEMB      190             0.0000000000
     22013       190  CHL1      H2B           -32.0976606473      -34.3820704778      -16.8906350000  MEMB      190             0.0000000000
     22014       190  CHL1      C20           -30.1502690379      -34.0116323079       -7.4805550000  MEMB      190             0.0000000000
     22015       190  CHL1      H20           -30.8807500250      -33.3180067170       -7.9491750000  MEMB      190             0.0000000000
     22016       190  CHL1      C21           -29.0773683022      -33.0720771716       -6.8439050000  MEMB      190             0.0000000000
     22017       190  CHL1      H21A          -28.3230657320      -33.7665519276       -6.4160650000  MEMB      190             0.0000000000
     22018       190  CHL1      H21B          -29.5435684137      -32.4839787396       -6.0246850000  MEMB      190             0.0000000000
     22019       190  CHL1      H21C          -28.5123746136      -32.4111885992       -7.5355350000  MEMB      190             0.0000000000
     22020       190  CHL1      C22           -30.8933600227      -34.9918224519       -6.5492850000  MEMB      190             0.0000000000
     22021       190  CHL1      H22A          -31.8209340596      -35.2658515726       -7.0959250000  MEMB      190             0.0000000000
     22022       190  CHL1      H22B          -30.3540227159      -35.9260807186       -6.2835850000  MEMB      190             0.0000000000
     22023       190  CHL1      C23           -31.2862305796      -34.2479608072       -5.1732550000  MEMB      190             0.0000000000
     22024       190  CHL1      H23A          -30.3924263352      -33.8134744398       -4.6766050000  MEMB      190             0.0000000000
     22025       190  CHL1      H23B          -32.0661508104      -33.5063441329       -5.4490050000  MEMB      190             0.0000000000
     22026       190  CHL1      C24           -32.0787101009      -35.0881556993       -4.2165750000  MEMB      190             0.0000000000
     22027       190  CHL1      H24A          -32.7803376891      -34.4148391868       -3.6792850000  MEMB      190             0.0000000000
     22028       190  CHL1      H24B          -32.7649386963      -35.7648448529       -4.7693050000  MEMB      190             0.0000000000
     22029       190  CHL1      C25           -31.3705267952      -35.9925691367       -3.1646850000  MEMB      190             0.0000000000
     22030       190  CHL1      H25           -30.4324389873      -35.4424926534       -2.9372250000  MEMB      190             0.0000000000
     22031       190  CHL1      C26           -32.0176728843      -36.0697072665       -1.8084050000  MEMB      190             0.0000000000
     22032       190  CHL1      H26A          -32.2766769514      -35.0522529834       -1.4450350000  MEMB      190             0.0000000000
     22033       190  CHL1      H26B          -32.9378046128      -36.6888517867       -1.7427250000  MEMB      190             0.0000000000
     22034       190  CHL1      H26C          -31.3626841036      -36.4919642490       -1.0165650000  MEMB      190             0.0000000000
     22035       190  CHL1      C27           -30.8447705003      -37.3591080357       -3.6676550000  MEMB      190             0.0000000000
     22036       190  CHL1      H27A          -31.6267357948      -38.0620776275       -4.0264050000  MEMB      190             0.0000000000
     22037       190  CHL1      H27B          -30.1941662432      -37.1031888343       -4.5311050000  MEMB      190             0.0000000000
     22038       190  CHL1      H27C          -30.3120197568      -37.9210492376       -2.8709650000  MEMB      190             0.0000000000
     22039       191  SAPC      N              31.9048781730      -31.1164773689      -19.9712485806  MEMB      191             0.0000000000
     22040       191  SAPC      C12            32.8461913739      -32.1288887535      -20.7134472976  MEMB      191             0.0000000000
     22041       191  SAPC      H12A           32.8593956855      -31.8273949728      -21.7504271166  MEMB      191             0.0000000000
     22042       191  SAPC      H12B           32.3989254100      -33.1025323318      -20.5779050310  MEMB      191             0.0000000000
     22043       191  SAPC      C13            32.0532951295      -31.2093492083      -18.4710449734  MEMB      191             0.0000000000
     22044       191  SAPC      H13A           31.9119456978      -32.2719871837      -18.3398174754  MEMB      191             0.0000000000
     22045       191  SAPC      H13B           33.0327037119      -30.8954285215      -18.1414805374  MEMB      191             0.0000000000
     22046       191  SAPC      H13C           31.1403853795      -30.7800065670      -18.0854792615  MEMB      191             0.0000000000
     22047       191  SAPC      C14            32.2433728811      -29.8051658308      -20.4731162360  MEMB      191             0.0000000000
     22048       191  SAPC      H14A           31.6206457100      -29.1465493584      -19.8858896042  MEMB      191             0.0000000000
     22049       191  SAPC      H14B           33.3097526495      -29.6613409212      -20.3806579253  MEMB      191             0.0000000000
     22050       191  SAPC      H14C           31.9991358377      -29.6315891393      -21.5107189351  MEMB      191             0.0000000000
     22051       191  SAPC      C15            30.4873838530      -31.4138730008      -20.3935479408  MEMB      191             0.0000000000
     22052       191  SAPC      H15A           29.7982303239      -30.7556605180      -19.8853912706  MEMB      191             0.0000000000
     22053       191  SAPC      H15B           30.3204474077      -31.1301781585      -21.4221631612  MEMB      191             0.0000000000
     22054       191  SAPC      H15C           30.3342083047      -32.4499437747      -20.1299293325  MEMB      191             0.0000000000
     22055       191  SAPC      C11            34.3391250452      -32.1509663963      -20.2172612295  MEMB      191             0.0000000000
     22056       191  SAPC      H11A           34.8405060826      -32.9409925028      -20.8162576971  MEMB      191             0.0000000000
     22057       191  SAPC      H11B           34.4837193879      -32.7076296868      -19.2667143405  MEMB      191             0.0000000000
     22058       191  SAPC      P              36.4904176907      -30.7941079872      -19.9563865770  MEMB      191             0.0000000000
     22059       191  SAPC      O13            36.6962664249      -31.2481147292      -18.5895576022  MEMB      191             0.0000000000
     22060       191  SAPC      O14            37.2908007069      -31.3786830035      -21.0716413489  MEMB      191             0.0000000000
     22061       191  SAPC      O12            34.9825531640      -30.8976099732      -20.3048312520  MEMB      191             0.0000000000
     22062       191  SAPC      O11            36.7723849786      -29.2430265371      -19.8379169667  MEMB      191             0.0000000000
     22063       191  SAPC      C1             35.8443602539      -28.2646589525      -19.2214527170  MEMB      191             0.0000000000
     22064       191  SAPC      HA             35.5084156704      -27.5795831347      -20.0290005130  MEMB      191             0.0000000000
     22065       191  SAPC      HB             34.9567647243      -28.7790146079      -18.7949165508  MEMB      191             0.0000000000
     22066       191  SAPC      C2             36.5793153492      -27.5340925328      -18.0647268831  MEMB      191             0.0000000000
     22067       191  SAPC      HS             37.5991436192      -27.2662391515      -18.4147635114  MEMB      191             0.0000000000
     22068       191  SAPC      O21            36.6287415791      -28.4365821306      -16.9508283587  MEMB      191             0.0000000000
     22069       191  SAPC      C21            37.5705675648      -28.1393314047      -16.0648251650  MEMB      191             0.0000000000
     22070       191  SAPC      O22            38.3823875401      -27.2314124754      -16.1057285778  MEMB      191             0.0000000000
     22071       191  SAPC      C22            37.4828171833      -29.1567370691      -14.8327751986  MEMB      191             0.0000000000
     22072       191  SAPC      H2R            36.4691482906      -29.0978949039      -14.3818495088  MEMB      191             0.0000000000
     22073       191  SAPC      H2S            37.5648250164      -30.1731128043      -15.2738833190  MEMB      191             0.0000000000
     22074       191  SAPC      C3             35.7416228950      -26.2734414857      -17.6374646496  MEMB      191             0.0000000000
     22075       191  SAPC      HX             35.5353562763      -25.6202731683      -18.5121910265  MEMB      191             0.0000000000
     22076       191  SAPC      HY             36.3701697008      -25.6587046668      -16.9582382865  MEMB      191             0.0000000000
     22077       191  SAPC      O31            34.4522106827      -26.5947153108      -17.0477374169  MEMB      191             0.0000000000
     22078       191  SAPC      C31            34.1874528125      -26.5016382444      -15.7541251394  MEMB      191             0.0000000000
     22079       191  SAPC      O32            34.9966520052      -26.2492196751      -14.8561927972  MEMB      191             0.0000000000
     22080       191  SAPC      C32            32.6909399272      -26.8484413143      -15.4495352098  MEMB      191             0.0000000000
     22081       191  SAPC      H2X            32.4242522466      -27.7902908534      -15.9750045598  MEMB      191             0.0000000000
     22082       191  SAPC      H2Y            32.0566701832      -26.0664930929      -15.9191940544  MEMB      191             0.0000000000
     22083       191  SAPC      C23            38.6014891031      -28.7925656299      -13.8934394820  MEMB      191             0.0000000000
     22084       191  SAPC      H3R            39.5235745849      -28.6072600454      -14.4848286514  MEMB      191             0.0000000000
     22085       191  SAPC      H3S            38.7773341369      -29.6846410762      -13.2550033573  MEMB      191             0.0000000000
     22086       191  SAPC      C24            38.3593002126      -27.5063113500      -12.9181179302  MEMB      191             0.0000000000
     22087       191  SAPC      H4R            38.1516642821      -26.6748700277      -13.6251636898  MEMB      191             0.0000000000
     22088       191  SAPC      H4S            39.3030986569      -27.3566135015      -12.3514117316  MEMB      191             0.0000000000
     22089       191  SAPC      C25            37.3025850023      -27.6460492545      -11.9380452181  MEMB      191             0.0000000000
     22090       191  SAPC      H5R            36.4572193927      -26.9760883421      -12.1537055649  MEMB      191             0.0000000000
     22091       191  SAPC      C26            37.2741143257      -28.4100129905      -10.8771160156  MEMB      191             0.0000000000
     22092       191  SAPC      H6R            36.3313155724      -28.4494302411      -10.3118048066  MEMB      191             0.0000000000
     22093       191  SAPC      C27            38.3642456314      -29.3499099804      -10.4114181477  MEMB      191             0.0000000000
     22094       191  SAPC      H7R            38.5666041389      -30.0732928208      -11.2300086268  MEMB      191             0.0000000000
     22095       191  SAPC      H7S            37.9420263470      -29.9858663412       -9.6041938014  MEMB      191             0.0000000000
     22096       191  SAPC      C28            39.5496143242      -28.6046657134       -9.8432601514  MEMB      191             0.0000000000
     22097       191  SAPC      H8R            40.2915714936      -28.2945821057      -10.5938253838  MEMB      191             0.0000000000
     22098       191  SAPC      C29            39.7705869390      -28.2034626491       -8.5941765914  MEMB      191             0.0000000000
     22099       191  SAPC      H9R            40.7421099188      -27.7220174260       -8.4088294963  MEMB      191             0.0000000000
     22100       191  SAPC      C210           38.9591782451      -28.2377264836       -7.3063258009  MEMB      191             0.0000000000
     22101       191  SAPC      H10R           39.3395261618      -29.0019796491       -6.5952882217  MEMB      191             0.0000000000
     22102       191  SAPC      H10S           37.9188236630      -28.5012320741       -7.5936369176  MEMB      191             0.0000000000
     22103       191  SAPC      C211           38.9839928025      -26.8911848208       -6.7243650139  MEMB      191             0.0000000000
     22104       191  SAPC      H11R           38.5369229011      -26.0707331485       -7.3048715248  MEMB      191             0.0000000000
     22105       191  SAPC      C212           39.5909058331      -26.6253281599       -5.5225454158  MEMB      191             0.0000000000
     22106       191  SAPC      H12R           39.5385199264      -25.6124324166       -5.0967553653  MEMB      191             0.0000000000
     22107       191  SAPC      C213           40.3273057432      -27.5454170580       -4.5653482359  MEMB      191             0.0000000000
     22108       191  SAPC      H13R           41.2602661849      -27.1360114187       -4.1222977252  MEMB      191             0.0000000000
     22109       191  SAPC      H13S           40.7453924222      -28.3709681282       -5.1801569711  MEMB      191             0.0000000000
     22110       191  SAPC      C214           39.4475270120      -28.0992841990       -3.4538928742  MEMB      191             0.0000000000
     22111       191  SAPC      H14R           38.5664377083      -28.6766974552       -3.7705557493  MEMB      191             0.0000000000
     22112       191  SAPC      C215           39.6048071772      -28.1093279460       -2.1232698798  MEMB      191             0.0000000000
     22113       191  SAPC      H15R           38.8975816432      -28.6811902315       -1.5045568354  MEMB      191             0.0000000000
     22114       191  SAPC      C216           40.8339990927      -27.5371382711       -1.3130861695  MEMB      191             0.0000000000
     22115       191  SAPC      H16R           41.6172306832      -27.2853071549       -2.0597128058  MEMB      191             0.0000000000
     22116       191  SAPC      H16S           41.2388144722      -28.3538424159       -0.6779165145  MEMB      191             0.0000000000
     22117       191  SAPC      C217           40.5228906879      -26.2770912230       -0.4665856304  MEMB      191             0.0000000000
     22118       191  SAPC      H17R           40.2928585789      -25.4374523552       -1.1568123981  MEMB      191             0.0000000000
     22119       191  SAPC      H17S           41.5198071400      -26.0545811861       -0.0295880780  MEMB      191             0.0000000000
     22120       191  SAPC      C218           39.5609912540      -26.5140391281        0.6465300680  MEMB      191             0.0000000000
     22121       191  SAPC      H18R           39.8610530960      -27.4162445131        1.2212553345  MEMB      191             0.0000000000
     22122       191  SAPC      H18S           38.5991664850      -26.8417563049        0.1972925614  MEMB      191             0.0000000000
     22123       191  SAPC      C219           39.2426597321      -25.2644416990        1.5457848171  MEMB      191             0.0000000000
     22124       191  SAPC      H19R           39.1288532538      -24.3448610393        0.9328088391  MEMB      191             0.0000000000
     22125       191  SAPC      H19S           40.1186974483      -25.1497827046        2.2193820862  MEMB      191             0.0000000000
     22126       191  SAPC      C220           37.9516503469      -25.4245314694        2.3145457144  MEMB      191             0.0000000000
     22127       191  SAPC      H20R           37.1685429863      -25.2700513287        1.5417587152  MEMB      191             0.0000000000
     22128       191  SAPC      H20S           37.8145827743      -24.5898503404        3.0348520398  MEMB      191             0.0000000000
     22129       191  SAPC      H20T           37.7559956917      -26.4264954613        2.7528476562  MEMB      191             0.0000000000
     22130       191  SAPC      C33            32.2765699835      -26.9681212741      -14.0233649690  MEMB      191             0.0000000000
     22131       191  SAPC      H3X            31.1921247773      -26.8703544058      -13.8025909180  MEMB      191             0.0000000000
     22132       191  SAPC      H3Y            32.5876343064      -26.1259172201      -13.3689553086  MEMB      191             0.0000000000
     22133       191  SAPC      C34            32.6337268666      -28.3185198399      -13.3551259056  MEMB      191             0.0000000000
     22134       191  SAPC      H4X            33.7301464821      -28.4194198070      -13.5034642801  MEMB      191             0.0000000000
     22135       191  SAPC      H4Y            32.2098186341      -29.1011062515      -14.0200933354  MEMB      191             0.0000000000
     22136       191  SAPC      C35            32.4132152432      -28.4286159476      -11.9352123760  MEMB      191             0.0000000000
     22137       191  SAPC      H5X            31.3369542473      -28.6386219682      -11.7566616726  MEMB      191             0.0000000000
     22138       191  SAPC      H5Y            32.7815206140      -27.5747079481      -11.3273373421  MEMB      191             0.0000000000
     22139       191  SAPC      C36            33.1525394734      -29.6349574746      -11.3329532389  MEMB      191             0.0000000000
     22140       191  SAPC      H6X            32.8642190133      -29.5340660821      -10.2647710191  MEMB      191             0.0000000000
     22141       191  SAPC      H6Y            34.2488020768      -29.5734073938      -11.5024843182  MEMB      191             0.0000000000
     22142       191  SAPC      C37            32.8800029625      -30.9958324089      -11.9663666911  MEMB      191             0.0000000000
     22143       191  SAPC      H7X            33.1585209350      -30.9557920431      -13.0411437820  MEMB      191             0.0000000000
     22144       191  SAPC      H7Y            31.7992025951      -31.2141133285      -12.1025470461  MEMB      191             0.0000000000
     22145       191  SAPC      C38            33.7481099264      -32.0991583919      -11.3800971293  MEMB      191             0.0000000000
     22146       191  SAPC      H8X            34.8317646927      -31.8632218393      -11.4460326732  MEMB      191             0.0000000000
     22147       191  SAPC      H8Y            33.6545715655      -33.0393605086      -11.9645551145  MEMB      191             0.0000000000
     22148       191  SAPC      C39            33.4845476505      -32.4535189995       -9.9141335680  MEMB      191             0.0000000000
     22149       191  SAPC      H9X            33.7430464702      -33.5221552344       -9.7543967896  MEMB      191             0.0000000000
     22150       191  SAPC      H9Y            32.4027616278      -32.2421381109       -9.7749282967  MEMB      191             0.0000000000
     22151       191  SAPC      C310           34.2420028147      -31.5714409117       -8.8220492719  MEMB      191             0.0000000000
     22152       191  SAPC      H10X           34.2967226695      -30.5336600215       -9.2149071459  MEMB      191             0.0000000000
     22153       191  SAPC      H10Y           35.3012956489      -31.8988678038       -8.7512583973  MEMB      191             0.0000000000
     22154       191  SAPC      C311           33.6427065464      -31.3652798857       -7.4605778964  MEMB      191             0.0000000000
     22155       191  SAPC      H11X           34.2703707869      -30.6899311334       -6.8406890632  MEMB      191             0.0000000000
     22156       191  SAPC      H11Y           33.7037626457      -32.3792291910       -7.0105776423  MEMB      191             0.0000000000
     22157       191  SAPC      C312           32.2411363771      -30.7477320845       -7.3001558954  MEMB      191             0.0000000000
     22158       191  SAPC      H12X           31.5466304638      -31.3408288201       -7.9327837806  MEMB      191             0.0000000000
     22159       191  SAPC      H12Y           32.4381964091      -29.7212017732       -7.6766175116  MEMB      191             0.0000000000
     22160       191  SAPC      C313           31.6594234603      -30.6795114654       -5.8820807955  MEMB      191             0.0000000000
     22161       191  SAPC      H13X           31.5459126451      -31.6487906701       -5.3511060010  MEMB      191             0.0000000000
     22162       191  SAPC      H13Y           30.6556385917      -30.2145611015       -5.9848373785  MEMB      191             0.0000000000
     22163       191  SAPC      C314           32.3420297108      -29.7724445797       -4.8801191747  MEMB      191             0.0000000000
     22164       191  SAPC      H14X           31.9908027404      -28.7466107822       -5.1222463245  MEMB      191             0.0000000000
     22165       191  SAPC      H14Y           33.4209515463      -29.7501874776       -5.1442277039  MEMB      191             0.0000000000
     22166       191  SAPC      C315           32.2449581184      -30.1137552523       -3.4207101174  MEMB      191             0.0000000000
     22167       191  SAPC      H15X           31.1876016806      -30.1633473973       -3.0832818829  MEMB      191             0.0000000000
     22168       191  SAPC      H15Y           32.6572949077      -29.2164231161       -2.9116987386  MEMB      191             0.0000000000
     22169       191  SAPC      C316           33.0835346968      -31.3167294498       -2.9008654328  MEMB      191             0.0000000000
     22170       191  SAPC      H16X           32.5960133837      -32.2881151152       -3.1311970960  MEMB      191             0.0000000000
     22171       191  SAPC      H16Y           33.1637496342      -31.1986516632       -1.7990742356  MEMB      191             0.0000000000
     22172       191  SAPC      C317           34.5468490051      -31.2656630343       -3.3605931850  MEMB      191             0.0000000000
     22173       191  SAPC      H17X           34.6417521512      -31.1481996808       -4.4612831370  MEMB      191             0.0000000000
     22174       191  SAPC      H17Y           35.0139285140      -32.2382400905       -3.0955433601  MEMB      191             0.0000000000
     22175       191  SAPC      C318           35.3977570367      -30.1337500693       -2.7725552476  MEMB      191             0.0000000000
     22176       191  SAPC      H18X           34.8609105058      -29.1661053035       -2.8714506164  MEMB      191             0.0000000000
     22177       191  SAPC      H18Y           36.4416273316      -30.0801594078       -3.1490973750  MEMB      191             0.0000000000
     22178       191  SAPC      H18Z           35.5793113400      -30.3728406005       -1.7028837867  MEMB      191             0.0000000000
     22179       192  CHL1      C3             36.1926381476       34.9662845372      -17.3349000000  MEMB      192             0.0000000000
     22180       192  CHL1      H3             37.1986095339       35.3484403813      -17.6111300000  MEMB      192             0.0000000000
     22181       192  CHL1      O3             35.6677334524       34.8079652628      -18.6651000000  MEMB      192             0.0000000000
     22182       192  CHL1      H3'            36.3463129226       34.2640805520      -19.0717000000  MEMB      192             0.0000000000
     22183       192  CHL1      C4             36.2877892638       33.5321303151      -16.7041200000  MEMB      192             0.0000000000
     22184       192  CHL1      H4A            35.3176945681       33.0062791044      -16.8334500000  MEMB      192             0.0000000000
     22185       192  CHL1      H4B            37.1158532366       32.9654409452      -17.1810600000  MEMB      192             0.0000000000
     22186       192  CHL1      C5             36.5732397941       33.6456918213      -15.2228300000  MEMB      192             0.0000000000
     22187       192  CHL1      C6             37.5579911698       32.9186128225      -14.6020700000  MEMB      192             0.0000000000
     22188       192  CHL1      H6             38.0662589201       32.2794262560      -15.3390200000  MEMB      192             0.0000000000
     22189       192  CHL1      C7             37.9883852410       32.9944651411      -13.1172100000  MEMB      192             0.0000000000
     22190       192  CHL1      H7A            38.3010411925       31.9916038394      -12.7555000000  MEMB      192             0.0000000000
     22191       192  CHL1      H7B            38.9071834906       33.6011484291      -12.9686700000  MEMB      192             0.0000000000
     22192       192  CHL1      C8             36.8665879721       33.6558710217      -12.2961000000  MEMB      192             0.0000000000
     22193       192  CHL1      H8             36.0843671654       32.8676294013      -12.2626900000  MEMB      192             0.0000000000
     22194       192  CHL1      C14            37.3688884588       33.9759010509      -10.9092700000  MEMB      192             0.0000000000
     22195       192  CHL1      H14            38.1340687712       34.7656213380      -11.0678700000  MEMB      192             0.0000000000
     22196       192  CHL1      C15            38.0306924315       32.8328553901      -10.1581900000  MEMB      192             0.0000000000
     22197       192  CHL1      H15A           37.3584417565       31.9535417942      -10.2540200000  MEMB      192             0.0000000000
     22198       192  CHL1      H15B           39.0619695063       32.6132112909      -10.5082600000  MEMB      192             0.0000000000
     22199       192  CHL1      C16            38.0594605940       33.4865354128       -8.7314300000  MEMB      192             0.0000000000
     22200       192  CHL1      H16A           37.5675456193       32.8116986321       -7.9986800000  MEMB      192             0.0000000000
     22201       192  CHL1      H16B           39.1479304977       33.4461450735       -8.5125300000  MEMB      192             0.0000000000
     22202       192  CHL1      C17            37.3585205628       34.8415794307       -8.7498500000  MEMB      192             0.0000000000
     22203       192  CHL1      H17            38.1256060031       35.5778502970       -9.0720200000  MEMB      192             0.0000000000
     22204       192  CHL1      C13            36.4041577549       34.7202077600       -9.9695300000  MEMB      192             0.0000000000
     22205       192  CHL1      C18            35.1617668471       33.8324966905       -9.5629600000  MEMB      192             0.0000000000
     22206       192  CHL1      H18A           34.8280933490       33.4126228191      -10.5359400000  MEMB      192             0.0000000000
     22207       192  CHL1      H18B           35.5037293145       32.9573933280       -8.9700300000  MEMB      192             0.0000000000
     22208       192  CHL1      H18C           34.3927538598       34.4367994572       -9.0359300000  MEMB      192             0.0000000000
     22209       192  CHL1      C12            36.0329743863       36.0317843880      -10.6450000000  MEMB      192             0.0000000000
     22210       192  CHL1      H12A           35.2901647782       36.6048852859      -10.0499200000  MEMB      192             0.0000000000
     22211       192  CHL1      H12B           36.9536864892       36.6533709026      -10.6603500000  MEMB      192             0.0000000000
     22212       192  CHL1      C11            35.4176889979       35.7578306171      -12.0334500000  MEMB      192             0.0000000000
     22213       192  CHL1      H11A           34.4523198873       35.2585405688      -11.8030300000  MEMB      192             0.0000000000
     22214       192  CHL1      H11B           35.0972664042       36.7240568063      -12.4784900000  MEMB      192             0.0000000000
     22215       192  CHL1      C9             36.2823445095       34.8996560992      -12.9813500000  MEMB      192             0.0000000000
     22216       192  CHL1      H9             37.1904632129       35.4691775009      -13.2733900000  MEMB      192             0.0000000000
     22217       192  CHL1      C10            35.7672397666       34.6183961619      -14.4433000000  MEMB      192             0.0000000000
     22218       192  CHL1      C19            34.3206678383       34.1500973743      -14.3048900000  MEMB      192             0.0000000000
     22219       192  CHL1      H19A           34.1444143934       33.2733442964      -13.6456700000  MEMB      192             0.0000000000
     22220       192  CHL1      H19B           33.6658926903       34.9994710787      -14.0148100000  MEMB      192             0.0000000000
     22221       192  CHL1      H19C           33.9274468515       33.8844829130      -15.3094600000  MEMB      192             0.0000000000
     22222       192  CHL1      C1             35.7527959949       35.9962876341      -15.1345100000  MEMB      192             0.0000000000
     22223       192  CHL1      H1A            35.1858639785       36.7696668515      -14.5734400000  MEMB      192             0.0000000000
     22224       192  CHL1      H1B            36.7348805094       36.5130334372      -15.0813500000  MEMB      192             0.0000000000
     22225       192  CHL1      C2             35.2986543310       35.9585377357      -16.5923800000  MEMB      192             0.0000000000
     22226       192  CHL1      H2A            35.3815765262       36.9626634463      -17.0605300000  MEMB      192             0.0000000000
     22227       192  CHL1      H2B            34.2451910558       35.6648312613      -16.7880200000  MEMB      192             0.0000000000
     22228       192  CHL1      C20            36.8271854740       35.2781119168       -7.3338400000  MEMB      192             0.0000000000
     22229       192  CHL1      H20            36.1232201426       34.4913967915       -6.9876700000  MEMB      192             0.0000000000
     22230       192  CHL1      C21            36.0030978983       36.5380085818       -7.4136100000  MEMB      192             0.0000000000
     22231       192  CHL1      H21A           35.0687989287       36.3126394564       -7.9709300000  MEMB      192             0.0000000000
     22232       192  CHL1      H21B           36.4996429470       37.3601054198       -7.9721100000  MEMB      192             0.0000000000
     22233       192  CHL1      H21C           35.6199186242       36.9286958556       -6.4467300000  MEMB      192             0.0000000000
     22234       192  CHL1      C22            37.9416865953       35.2086612176       -6.2384100000  MEMB      192             0.0000000000
     22235       192  CHL1      H22A           38.3208933785       34.1645120230       -6.2216600000  MEMB      192             0.0000000000
     22236       192  CHL1      H22B           38.6954051850       35.9756330254       -6.5176400000  MEMB      192             0.0000000000
     22237       192  CHL1      C23            37.4883963827       35.5038853692       -4.8576400000  MEMB      192             0.0000000000
     22238       192  CHL1      H23A           37.1777772312       36.5702815271       -4.8828600000  MEMB      192             0.0000000000
     22239       192  CHL1      H23B           36.6271738837       34.8637580662       -4.5698000000  MEMB      192             0.0000000000
     22240       192  CHL1      C24            38.6450227794       35.2576994535       -3.8257200000  MEMB      192             0.0000000000
     22241       192  CHL1      H24A           38.5878580358       34.1580733917       -3.6777900000  MEMB      192             0.0000000000
     22242       192  CHL1      H24B           39.6583407353       35.4975574986       -4.2129900000  MEMB      192             0.0000000000
     22243       192  CHL1      C25            38.2922388791       35.9973505473       -2.5381600000  MEMB      192             0.0000000000
     22244       192  CHL1      H25            37.2284212141       36.3152142499       -2.5777500000  MEMB      192             0.0000000000
     22245       192  CHL1      C26            38.6006152991       35.0362740959       -1.3779700000  MEMB      192             0.0000000000
     22246       192  CHL1      H26A           39.5836727562       34.5615562126       -1.5842500000  MEMB      192             0.0000000000
     22247       192  CHL1      H26B           38.4450000338       35.5830538004       -0.4234300000  MEMB      192             0.0000000000
     22248       192  CHL1      H26C           37.8727789554       34.2214701886       -1.1763300000  MEMB      192             0.0000000000
     22249       192  CHL1      C27            39.1900128943       37.2329177674       -2.3896700000  MEMB      192             0.0000000000
     22250       192  CHL1      H27A           39.1536734811       37.9447172607       -3.2419200000  MEMB      192             0.0000000000
     22251       192  CHL1      H27B           38.7493580063       37.8435152634       -1.5727700000  MEMB      192             0.0000000000
     22252       192  CHL1      H27C           40.2464856047       36.9743528518       -2.1631000000  MEMB      192             0.0000000000
